ITEM: TIMESTEP
1000000
ITEM: NUMBER OF ATOMS
6540
ITEM: BOX BOUNDS pp pp pp
0 40.31
0 40.31
0 40.31
ITEM: ATOMS id type x y z
1 1 32.1367 27.7768 5.07064
2 2 32.2396 28.7686 5.14633
3 2 33.0379 27.3548 4.97135
4 1 0.270431 3.06702 39.175
5 2 0.488665 3.96213 38.7862
6 2 0.25882 3.13089 40.1729
7 1 5.70216 20.1185 35.8424
8 2 6.5264 20.6805 35.7737
9 2 5.5899 19.5875 35.0024
10 1 23.7004 3.2511 27.7289
11 2 24.3278 3.06106 26.9738
12 2 22.8512 2.74086 27.5931
13 1 29.4332 21.8249 9.94405
14 2 28.649 21.3113 10.2922
15 2 30.0853 21.1935 9.52437
16 1 38.5904 5.9555 9.07487
17 2 39.124 6.0009 9.91938
18 2 37.6153 5.98427 9.29478
19 1 20.3787 21.6582 33.2547
20 2 20.474 20.9599 33.9641
21 2 20.8011 22.5094 33.5661
22 1 2.1687 11.9983 33.4264
23 2 2.76321 11.24 33.1589
24 2 1.76516 12.4098 32.6092
25 1 11.6429 8.85279 12.0783
26 2 11.166 8.39254 11.3295
27 2 12.5234 9.19611 11.7515
28 1 38.7768 26.7084 4.17534
29 2 38.6214 25.7245 4.0867
30 2 39.7151 26.8714 4.48046
31 1 28.2942 10.3291 31.251
32 2 28.3994 11.1408 31.8256
33 2 28.8358 9.57931 31.6311
34 1 28.4415 5.98401 16.7459
35 2 28.9581 6.83354 16.6394
36 2 27.7297 6.11114 17.4367
37 1 36.2939 20.9708 31.3687
38 2 36.8976 21.4659 31.9936
39 2 35.5846 21.5892 31.0305
40 1 38.5134 22.2732 22.4796
41 2 39.2514 22.7912 22.9122
42 2 37.8881 21.9337 23.1823
43 1 33.7023 10.3449 4.51144
44 2 33.7606 11.3431 4.49773
45 2 34.6221 9.95652 4.45552
46 1 32.6619 0.530695 32.3204
47 2 33.0905 0.397759 31.4268
48 2 33.2001 0.0624705 33.0212
49 1 27.9445 6.20999 14.059
50 2 28.0075 6.28127 15.0544
51 2 28.5456 6.8889 13.6375
52 1 16.9486 33.1102 27.6855
53 2 16.1587 33.3686 27.1294
54 2 17.3434 33.9281 28.1042
55 1 32.8893 33.5012 34.7373
56 2 32.4729 32.8342 35.3551
57 2 32.8203 33.1718 33.7956
58 1 13.4363 29.6272 1.44716
59 2 14.1895 28.9768 1.34872
60 2 12.6736 29.185 1.91911
61 1 5.9299 2.22487 22.1748
62 2 5.33302 1.4313 22.293
63 2 6.79968 1.93156 21.778
64 1 19.1898 17.2653 35.1799
65 2 19.4592 17.5934 34.2744
66 2 19.2051 18.0264 35.8283
67 1 13.3687 7.05926 19.1244
68 2 13.0198 6.19385 19.4839
69 2 13.432 7.72704 19.866
70 1 5.76488 13.7783 26.1626
71 2 6.64273 14.2572 26.1636
72 2 5.02703 14.4351 26.007
73 1 5.87479 15.9607 1.83792
74 2 6.82447 16.1039 1.55934
75 2 5.8246 15.1817 2.4629
76 1 37.0015 24.4729 0.976807
77 2 36.4997 23.6708 1.30068
78 2 36.5347 25.3033 1.28108
79 1 18.8758 12.0836 35.2528
80 2 18.0955 12.5751 35.6395
81 2 18.5552 11.4509 34.5479
82 1 33.7252 33.8342 16.8635
83 2 34.2739 33.6482 16.0485
84 2 32.8523 34.2398 16.5922
85 1 5.46543 17.5044 27.1339
86 2 5.6835 18.2118 26.4616
87 2 4.67085 16.9828 26.8231
88 1 2.36946 4.35675 18.7026
89 2 2.50552 4.12023 19.6646
90 2 2.50255 5.34013 18.5791
91 1 17.4824 22.669 16.7061
92 2 17.2391 22.1622 15.8791
93 2 17.0849 22.2157 17.5039
94 1 33.3454 36.2873 38.8056
95 2 34.0091 35.5488 38.6866
96 2 32.4527 35.991 38.466
97 1 33.3679 12.5976 26.5905
98 2 34.2278 12.109 26.4421
99 2 32.7722 12.4723 25.7972
100 1 12.3206 38.1115 32.4021
101 2 12.3561 38.9572 31.8697
102 2 12.0065 38.3144 33.3296
103 1 16.7767 31.4486 9.87965
104 2 17.4345 32.2006 9.9211
105 2 16.3983 31.2861 10.7909
106 1 25.8961 29.8702 25.2035
107 2 26.8143 29.5229 25.0127
108 2 25.2348 29.4048 24.6153
109 1 0.427321 20.5511 0.881309
110 2 40.3265 20.0542 0.116935
111 2 1.2115 20.0376 1.22968
112 1 11.7299 12.0824 18.4248
113 2 12.6803 11.7728 18.4522
114 2 11.1209 11.3024 18.5684
115 1 35.5084 14.3192 35.563
116 2 34.85 13.6362 35.2468
117 2 35.6325 15.0151 34.8557
118 1 9.02385 36.5608 30.1811
119 2 9.10486 37.3859 30.7402
120 2 8.14766 36.5694 29.6992
121 1 18.3857 28.1561 20.9579
122 2 19.1338 28.4081 21.5716
123 2 17.5729 27.9342 21.4966
124 1 8.5008 21.5987 18.1799
125 2 8.60526 21.0534 19.0116
126 2 7.53018 21.7762 18.0174
127 1 11.3829 4.22259 26.521
128 2 11.0222 5.15214 26.4445
129 2 10.6509 3.56524 26.3417
130 1 37.9079 12.8784 0.142668
131 2 38.1176 11.9762 0.519335
132 2 38.7589 13.3783 40.2914
133 1 37.3732 10.8647 9.78042
134 2 36.7385 10.4392 9.13535
135 2 37.8168 11.6477 9.34423
136 1 13.2698 3.15942 1.3619
137 2 14.0197 2.49848 1.3352
138 2 13.5628 3.97615 1.85897
139 1 15.6604 10.0383 12.9722
140 2 15.4778 9.74186 13.9097
141 2 16.6204 9.86853 12.7499
142 1 22.1683 37.1963 13.8773
143 2 22.2038 36.6694 14.7265
144 2 21.2488 37.1396 13.4881
145 1 9.55275 20.0089 26.489
146 2 10.5427 19.8677 26.4828
147 2 9.21803 19.9817 27.4309
148 1 36.7357 5.50575 19.0051
149 2 37.6885 5.30715 19.2347
150 2 36.5961 6.49584 18.9889
151 1 6.99784 27.8251 4.80582
152 2 6.4026 27.1293 5.20765
153 2 6.46572 28.6506 4.61763
154 1 33.1501 40.0259 21.6025
155 2 32.7702 0.64053 21.5769
156 2 32.5905 39.4198 21.0373
157 1 38.672 33.9289 18.8831
158 2 38.0737 33.852 18.0855
159 2 39.4554 33.3173 18.7723
160 1 36.6165 31.7605 18.8728
161 2 35.761 31.8719 19.3786
162 2 36.6722 32.4548 18.1553
163 1 26.31 36.0686 40.1002
164 2 26.7086 35.4693 0.484505
165 2 25.3536 35.817 39.9521
166 1 15.844 20.3341 22.6411
167 2 16.0779 19.6207 21.9804
168 2 16.4729 21.1045 22.5364
169 1 10.7736 16.9316 28.5588
170 2 9.9474 17.3486 28.9375
171 2 10.7331 15.94 28.6819
172 1 36.569 19.6666 14.6843
173 2 36.5503 19.6549 15.684
174 2 37.5178 19.6719 14.3687
175 1 39.8329 31.9498 22.8776
176 2 39.3064 31.2331 22.4203
177 2 39.6157 31.9515 23.8538
178 1 34.5026 26.2835 5.38079
179 2 34.6884 25.3921 5.79423
180 2 35.3615 26.6952 5.07613
181 1 10.1591 30.3259 5.71595
182 2 10.1295 29.3983 6.08829
183 2 10.1944 30.9854 6.46678
184 1 13.7728 34.1594 10.0403
185 2 14.076 33.3637 9.51591
186 2 12.8937 34.4774 9.68522
187 1 24.1392 12.4384 1.55953
188 2 24.2401 13.078 2.32157
189 2 24.33 12.9118 0.699565
190 1 38.7518 12.1496 15.0623
191 2 37.8548 11.88 14.712
192 2 39.0134 13.0299 14.6666
193 1 11.5876 14.8331 35.0284
194 2 11.1398 13.9399 35.0687
195 2 11.1664 15.385 34.3087
196 1 38.2904 31.7069 29.4928
197 2 38.1974 32.3863 28.765
198 2 38.4656 30.8086 29.0899
199 1 19.044 37.105 7.25916
200 2 19.2956 37.8986 6.70521
201 2 18.0898 37.188 7.54638
202 1 30.5352 27.0647 14.6713
203 2 29.8922 26.305 14.7678
204 2 31.1202 27.1111 15.481
205 1 1.14896 0.818951 38.4065
206 2 1.20961 0.944892 37.4163
207 2 0.878782 1.68058 38.8361
208 1 10.7313 38.3631 13.8166
209 2 10.9281 39.2598 13.42
210 2 10.9261 37.6505 13.1426
211 1 21.9533 1.76017 7.35447
212 2 21.4054 1.90558 6.53071
213 2 21.6902 0.895 7.7814
214 1 13.62 14.1948 7.02642
215 2 13.2048 13.3844 6.61296
216 2 13.2079 15.0172 6.63436
217 1 3.21735 28.1683 10.4849
218 2 4.09923 28.6299 10.5809
219 2 3.01195 27.6642 11.3238
220 1 24.5424 29.2431 1.14896
221 2 24.447 28.2783 1.39422
222 2 24.2928 29.3692 0.188858
223 1 11.2847 13.7578 3.2309
224 2 11.3659 13.0069 2.57546
225 2 10.3183 13.9677 3.37919
226 1 31.6917 6.81118 3.11239
227 2 31.4869 7.75774 3.36158
228 2 31.1866 6.19161 3.7133
229 1 24.1517 6.39256 9.75733
230 2 23.2694 6.16092 9.34753
231 2 24.7404 6.81194 9.06626
232 1 7.61655 34.5108 8.89761
233 2 7.18719 35.2812 8.42638
234 2 7.67948 34.7112 9.87529
235 1 15.3732 25.9942 27.4127
236 2 14.5537 26.0409 26.8415
237 2 15.146 25.5661 28.2873
238 1 0.0340886 15.0821 27.8813
239 2 40.2887 14.084 27.8537
240 2 0.472491 15.3682 28.7334
241 1 33.1121 4.5843 28.9267
242 2 32.9212 5.23336 29.6631
243 2 33.7262 3.87017 29.2627
244 1 29.8532 26.3043 5.41291
245 2 29.8405 25.5494 6.06859
246 2 30.5503 26.9686 5.68279
247 1 15.3491 22.635 14.3181
248 2 15.1917 23.5216 14.753
249 2 16.3322 22.4839 14.2155
250 1 40.286 29.4534 33.7397
251 2 39.8968 29.0344 32.9193
252 2 39.6932 29.2659 34.5229
253 1 19.1156 6.53613 0.589213
254 2 19.2579 5.60263 0.260112
255 2 18.7268 7.09273 40.165
256 1 20.0442 10.521 30.0315
257 2 20.8877 10.4981 29.4948
258 2 20.1448 9.93501 30.8355
259 1 23.3132 8.31586 24.8165
260 2 23.6061 8.54103 25.7458
261 2 22.7743 9.07165 24.4446
262 1 3.59002 22.4795 15.2159
263 2 3.59216 22.1587 14.2687
264 2 4.53203 22.575 15.5376
265 1 32.1256 39.8171 35.8916
266 2 32.5745 39.3636 36.6616
267 2 32.6624 0.304438 35.6155
268 1 24.5278 32.2102 28.8051
269 2 24.4146 32.7455 29.6422
270 2 25.5023 32.0864 28.618
271 1 34.2554 35.6819 20.9686
272 2 35.0194 35.0698 21.1725
273 2 34.4209 36.1428 20.0968
274 1 29.3289 11.9504 26.7012
275 2 28.7241 11.3364 26.194
276 2 29.7015 11.4702 27.4952
277 1 11.3989 28.1629 16.363
278 2 10.5404 27.8378 16.7597
279 2 11.3336 29.145 16.1862
280 1 23.8609 32.8659 34.6563
281 2 23.3658 33.2862 33.8958
282 2 24.7891 33.2359 34.6947
283 1 13.0707 38.2458 36.8115
284 2 13.5346 37.3872 37.0296
285 2 12.9919 38.8016 37.6391
286 1 7.72409 17.2518 35.5488
287 2 7.34155 16.4498 35.0899
288 2 7.57096 17.1766 36.5341
289 1 19.0739 18.1312 12.7227
290 2 19.2881 17.3973 13.3672
291 2 18.1439 18.4595 12.8884
292 1 17.5624 30.2247 2.27019
293 2 18.5093 30.21 1.94902
294 2 17.1873 31.145 2.15983
295 1 20.398 28.0784 2.12459
296 2 20.6535 28.1518 3.08861
297 2 20.3037 28.9941 1.73405
298 1 22.3893 26.3337 22.0627
299 2 21.9524 25.5988 22.5813
300 2 22.34 26.127 21.0855
301 1 9.40743 1.76827 9.48043
302 2 9.88695 0.895793 9.57454
303 2 9.43052 2.05984 8.52416
304 1 16.6289 8.86596 15.8272
305 2 15.7622 9.07446 16.2803
306 2 16.45 8.36999 14.9775
307 1 15.7907 27.7597 22.116
308 2 15.0601 28.079 21.5124
309 2 15.6074 28.0637 23.0509
310 1 37.4551 14.615 26.4709
311 2 38.3824 14.9284 26.6752
312 2 36.8007 15.3327 26.7085
313 1 25.308 23.1326 37.4677
314 2 24.4404 23.0047 36.9873
315 2 25.2272 22.7817 38.4007
316 1 18.5136 10.8435 38.1065
317 2 18.2905 11.7684 37.7988
318 2 19.5069 10.7298 38.1281
319 1 3.23293 12.7006 14.0134
320 2 2.98365 12.0273 14.7094
321 2 3.9874 12.3457 13.4614
322 1 34.9835 0.0625418 5.80597
323 2 34.4096 39.5573 5.88342
324 2 34.8626 0.470572 4.90105
325 1 23.3519 19.0981 11.9243
326 2 23.2586 18.9389 12.9071
327 2 23.5281 18.2295 11.4612
328 1 25.9203 5.43269 11.7662
329 2 25.3862 5.85571 11.0342
330 2 26.8284 5.19499 11.4216
331 1 5.90149 21.3224 28.7107
332 2 5.2882 22.0796 28.4858
333 2 6.65889 21.6614 29.2688
334 1 20.038 15.7182 1.55271
335 2 20.1648 16.0214 0.608253
336 2 19.5876 16.4408 2.0771
337 1 22.0814 16.0366 21.1168
338 2 22.0847 17.0132 20.9014
339 2 21.6981 15.898 22.03
340 1 4.32765 28.5905 17.4933
341 2 5.109 29.1598 17.7489
342 2 4.28937 28.5046 16.4977
343 1 3.2403 27.7066 23.3702
344 2 2.83554 28.2049 22.6036
345 2 3.6779 28.3536 23.9946
346 1 1.46146 35.0388 7.29919
347 2 0.814645 34.3915 6.89592
348 2 1.48919 34.9086 8.29028
349 1 12.9318 32.865 18.6286
350 2 13.7833 32.7563 19.1416
351 2 12.2999 33.4388 19.1495
352 1 2.61577 20.6222 25.7859
353 2 2.35133 20.099 26.5961
354 2 2.86461 19.9931 25.0495
355 1 16.1321 0.467752 10.0277
356 2 16.7671 0.260176 9.28356
357 2 16.4751 0.0706175 10.879
358 1 37.6112 13.5325 37.0354
359 2 37.3104 12.6521 37.4021
360 2 36.8749 13.9366 36.4927
361 1 38.65 27.0423 37.5075
362 2 39.1675 27.1775 38.3525
363 2 37.7191 26.7524 37.7296
364 1 33.185 32.0922 29.961
365 2 33.1338 32.1963 28.9678
366 2 33.7327 32.8349 30.3462
367 1 37.2831 1.9893 26.0777
368 2 38.0625 1.45565 25.7493
369 2 36.6886 2.21961 25.3073
370 1 12.8268 24.2582 37.55
371 2 13.4924 24.0084 36.8467
372 2 12.357 25.0989 37.2807
373 1 7.03026 27.5969 19.27
374 2 7.10284 27.5045 20.263
375 2 6.47035 26.8526 18.906
376 1 10.3065 5.95683 30.8789
377 2 9.85952 5.06402 30.8233
378 2 9.69448 6.65919 30.5154
379 1 27.371 29.4062 1.13049
380 2 26.3856 29.4509 1.29495
381 2 27.6249 28.4723 0.878761
382 1 2.46793 20.0273 30.4763
383 2 3.05906 20.3985 31.1924
384 2 3.02379 19.5319 29.8088
385 1 32.9448 22.1381 7.44364
386 2 33.0442 21.5833 6.61765
387 2 32.3406 22.9122 7.2545
388 1 34.6402 30.3772 4.13663
389 2 35.3738 30.9859 3.83434
390 2 35.036 29.5723 4.57879
391 1 14.2845 36.3344 15.1547
392 2 14.4433 36.6963 16.0732
393 2 13.4337 35.8089 15.1459
394 1 14.4367 25.4137 3.73921
395 2 15.3601 25.1252 3.99207
396 2 14.4387 25.7501 2.79747
397 1 38.5044 9.20751 26.6643
398 2 38.0696 8.74704 25.8904
399 2 38.0173 10.0581 26.8626
400 1 19.8255 16.4996 39.0868
401 2 20.013 16.0713 38.2028
402 2 18.9331 16.9498 39.0564
403 1 27.0331 19.6554 34.7496
404 2 26.1398 19.869 34.354
405 2 27.3428 18.7663 34.4128
406 1 28.1467 31.9911 0.362324
407 2 27.8061 32.1964 39.7548
408 2 27.8404 31.0791 0.635197
409 1 21.8221 6.00159 24.7375
410 2 22.4873 6.74705 24.78
411 2 20.9472 6.31408 25.1075
412 1 35.1237 2.97872 29.3736
413 2 35.8621 3.16849 28.7265
414 2 35.356 2.17203 29.9171
415 1 3.38149 32.6289 30.0081
416 2 4.21345 33.0698 30.3449
417 2 3.39751 31.6585 30.249
418 1 22.5917 10.792 28.726
419 2 23.1788 10.1412 28.2446
420 2 22.2602 11.4815 28.0821
421 1 33.763 23.744 10.2301
422 2 33.4837 23.4461 9.3173
423 2 33.9554 24.7252 10.2162
424 1 6.54901 12.3436 31.6635
425 2 7.13793 11.9439 32.3659
426 2 5.76489 12.7864 32.0983
427 1 4.20123 23.6767 28.182
428 2 4.43726 24.2425 28.9721
429 2 3.92707 24.2647 27.421
430 1 4.05502 3.37028 25.8972
431 2 3.82475 4.20743 25.4011
432 2 5.0321 3.182 25.7979
433 1 0.80645 4.18167 21.714
434 2 1.68668 3.81854 22.0195
435 2 0.159629 3.42888 21.5918
436 1 18.5691 24.133 6.49634
437 2 18.4033 24.3346 7.46169
438 2 18.4763 23.1496 6.34044
439 1 22.4075 34.7306 10.3084
440 2 23.3804 34.9324 10.4208
441 2 22.2999 33.821 9.90712
442 1 5.39129 23.5146 32.6403
443 2 5.36526 23.9649 31.7478
444 2 6.33029 23.5104 32.9842
445 1 14.4739 22.7335 1.66044
446 2 13.66 23.2405 1.94431
447 2 15.2645 23.0526 2.18302
448 1 25.4831 11.0939 26.4847
449 2 26.3689 10.9038 26.0613
450 2 25.1595 11.9933 26.1911
451 1 8.39719 35.4798 14.1787
452 2 7.79055 36.2469 14.3877
453 2 8.22411 35.1624 13.2464
454 1 9.73249 19.7831 16.3824
455 2 9.42526 18.9498 16.842
456 2 9.52736 20.5755 16.9567
457 1 34.997 16.5577 19.7596
458 2 34.3205 17.048 19.2101
459 2 34.9097 15.5749 19.5968
460 1 25.8911 7.75709 29.1411
461 2 25.8827 8.6541 29.583
462 2 26.1196 7.05525 29.8157
463 1 0.781769 27.1932 24.2753
464 2 1.69766 27.3777 23.9187
465 2 0.226813 26.7642 23.5626
466 1 23.255 31.5105 13.0226
467 2 22.5418 31.5858 12.3257
468 2 23.6982 32.3988 13.1433
469 1 15.2324 6.206 1.49895
470 2 15.6222 6.23192 0.578394
471 2 15.592 6.96993 2.03478
472 1 0.626267 14.2407 16.4934
473 2 0.557046 15.0965 17.0059
474 2 1.50501 13.8052 16.6888
475 1 7.14477 34.4901 22.1595
476 2 7.90814 35.1224 22.292
477 2 7.45241 33.5548 22.3344
478 1 35.3744 12.4511 10.3255
479 2 35.1301 12.8947 9.46327
480 2 36.0817 11.7643 10.1583
481 1 9.60682 5.92666 0.672347
482 2 10.5451 5.70405 0.407679
483 2 9.57215 6.86327 1.02101
484 1 27.4338 34.4356 1.47944
485 2 27.9248 34.6131 2.33234
486 2 27.6622 33.5203 1.14765
487 1 36.0486 6.0128 12.5178
488 2 36.0266 6.7605 11.8541
489 2 36.7558 5.3558 12.2564
490 1 25.0876 30.5281 31.1219
491 2 24.905 30.7147 30.1565
492 2 24.2312 30.2995 31.5849
493 1 17.8244 21.1177 14.4029
494 2 18.8192 21.104 14.5038
495 2 17.482 20.1797 14.3488
496 1 11.5324 23.7249 39.998
497 2 11.7542 22.7673 39.8142
498 2 11.8562 24.2931 39.2415
499 1 25.6769 33.1501 16.8817
500 2 25.6222 33.4938 15.9443
501 2 26.4971 33.5141 17.323
502 1 39.569 8.13687 7.64423
503 2 38.9018 8.42035 6.95532
504 2 39.188 7.39029 8.18971
505 1 13.1725 27.7826 28.8487
506 2 12.8037 28.4592 28.2114
507 2 12.9816 26.8628 28.5057
508 1 19.8898 36.6099 29.8482
509 2 19.5048 36.6711 30.7691
510 2 20.406 37.4423 29.6467
511 1 39.656 19.4247 39.0783
512 2 38.8522 18.9959 39.4904
513 2 39.9682 18.8733 38.3046
514 1 16.9308 36.0633 34.0407
515 2 16.0708 36.3529 33.6206
516 2 16.7433 35.3815 34.7478
517 1 14.4064 23.227 10.3649
518 2 15.1978 22.7368 9.99959
519 2 13.9375 23.704 9.62157
520 1 23.7458 19.0443 20.4218
521 2 23.7052 18.9228 19.43
522 2 24.2553 19.878 20.6348
523 1 0.106926 12.4203 27.1993
524 2 0.809155 12.2493 26.5082
525 2 39.5377 12.072 26.8744
526 1 8.17844 11.0579 29.0528
527 2 7.42771 10.5896 29.5187
528 2 8.98749 11.0575 29.6405
529 1 2.7742 7.75847 14.9379
530 2 2.14639 7.89885 14.1723
531 2 3.26411 6.89565 14.8133
532 1 21.0046 26.1466 9.75584
533 2 20.528 27.0163 9.88411
534 2 21.7745 26.0914 10.3916
535 1 16.3489 21.599 33.845
536 2 16.6591 22.3444 34.4351
537 2 17.1416 21.1327 33.4523
538 1 37.3483 6.39883 15.0758
539 2 36.8088 6.09067 14.2922
540 2 38.2792 6.04142 15.0009
541 1 28.1164 17.8613 11.0351
542 2 27.9141 18.7989 11.318
543 2 28.3726 17.3195 11.8357
544 1 23.9524 34.0437 13.8753
545 2 24.8825 34.4107 13.8943
546 2 23.3901 34.5259 14.5472
547 1 15.1631 39.4662 18.4423
548 2 15.4395 38.962 17.6241
549 2 14.1671 39.5546 18.4587
550 1 3.17829 26.2309 1.81272
551 2 2.68572 27.0261 2.16625
552 2 3.9245 26.5368 1.22145
553 1 39.1758 25.666 22.7971
554 2 38.3607 25.5728 23.3689
555 2 38.9049 25.9281 21.8708
556 1 15.2378 38.7291 21.1926
557 2 15.256 39.0061 20.2319
558 2 15.2881 39.5407 21.7745
559 1 15.8434 12.135 26.1236
560 2 16.824 12.2509 26.2816
561 2 15.4357 11.6521 26.8986
562 1 12.2809 11.4065 34.7554
563 2 13.1245 11.8575 35.0469
564 2 11.9345 11.8499 33.9287
565 1 8.1142 4.93476 10.687
566 2 8.93545 4.58195 11.1354
567 2 7.63394 4.18436 10.2329
568 1 9.45487 13.0676 14.5275
569 2 9.52799 13.6239 13.6998
570 2 8.55787 13.2094 14.9462
571 1 4.64926 33.8149 21.6283
572 2 4.54876 33.6561 20.6461
573 2 5.6121 33.9793 21.8426
574 1 22.8571 35.6792 25.4643
575 2 22.1719 35.0668 25.8586
576 2 23.7206 35.5751 25.9577
577 1 21.5131 39.5608 26.678
578 2 21.8772 39.064 27.4657
579 2 22.0697 39.361 25.8716
580 1 23.6608 28.7296 8.64427
581 2 22.801 28.4524 8.21544
582 2 23.6559 29.7186 8.7921
583 1 30.3093 31.1108 27.0277
584 2 29.9284 31.8981 27.5125
585 2 31.1801 31.367 26.6081
586 1 2.49947 15.516 23.4523
587 2 3.27021 14.9381 23.1839
588 2 1.76777 15.4309 22.776
589 1 23.8468 26.9264 28.1447
590 2 23.5635 26.5336 29.0195
591 2 24.678 27.4668 28.2754
592 1 15.9426 9.56753 36.9234
593 2 15.8658 9.04712 37.7739
594 2 16.8009 10.0806 36.923
595 1 13.8961 7.20938 24.2817
596 2 14.8166 7.43044 23.9598
597 2 13.4544 6.59241 23.6304
598 1 4.40885 6.87282 33.2652
599 2 4.79123 6.31404 34.0011
600 2 4.86036 7.76503 33.2551
601 1 32.8847 18.1068 18.7741
602 2 33.2196 18.8043 18.1405
603 2 32.1124 18.472 19.294
604 1 37.2238 33.2004 16.7206
605 2 36.6401 33.6814 16.0664
606 2 37.5342 32.3385 16.3195
607 1 12.345 38.1093 11.0282
608 2 12.5881 39.0684 10.8834
609 2 13.172 37.5812 11.221
610 1 18.719 13.7387 2.64279
611 2 17.8569 14.2102 2.45686
612 2 19.4738 14.2501 2.2321
613 1 0.174357 2.0993 10.4473
614 2 39.6741 2.02128 9.86642
615 2 0.958694 2.37254 9.8904
616 1 5.4115 12.2864 37.0664
617 2 5.69516 12.0711 36.132
618 2 5.12288 11.448 37.5287
619 1 0.265247 32.9188 38.5789
620 2 0.178169 33.8789 38.3134
621 2 0.181087 32.3398 37.7679
622 1 9.67422 23.749 31.4888
623 2 10.4666 24.3315 31.67
624 2 9.82729 22.8446 31.8871
625 1 17.0836 18.1841 26.2813
626 2 17.927 17.8527 25.8585
627 2 17.0028 19.1702 26.1356
628 1 33.4491 1.48317 39.1144
629 2 32.5153 1.72641 38.8523
630 2 34.0958 1.92796 38.4948
631 1 35.7934 23.0846 11.8071
632 2 35.0916 23.407 11.172
633 2 35.4257 22.3352 12.3578
634 1 32.058 27.4876 17.0668
635 2 32.1205 26.8357 17.8225
636 2 32.4736 28.3552 17.3397
637 1 18.8417 26.91 32.6131
638 2 18.7989 25.9122 32.5626
639 2 19.4222 27.2565 31.8763
640 1 34.6614 37.85 33.415
641 2 34.6237 37.1055 34.0815
642 2 35.0012 37.4992 32.5423
643 1 16.1281 0.0477432 5.04662
644 2 16.6534 39.7299 4.47227
645 2 16.7552 0.623619 5.57108
646 1 25.9582 15.9002 35.6551
647 2 26.6928 15.809 36.3275
648 2 26.249 16.5195 34.9257
649 1 27.3748 31.2698 21.3821
650 2 26.494 30.8962 21.6731
651 2 27.8983 31.5535 22.1854
652 1 8.81482 10.1062 11.3755
653 2 8.30158 9.36421 10.9441
654 2 8.39538 10.3347 12.2541
655 1 23.0725 3.60201 23.9171
656 2 22.9523 4.42617 24.4705
657 2 22.5101 3.669 23.0929
658 1 30.1508 36.8072 12.9643
659 2 29.4885 36.5009 12.2806
660 2 31.0561 36.4497 12.7349
661 1 20.4698 0.97772 10.2672
662 2 21.3042 0.637395 9.83368
663 2 20.3475 0.529311 11.1526
664 1 19.9624 3.74258 21.073
665 2 20.7094 3.09014 20.9453
666 2 20.3395 4.64158 21.2957
667 1 13.1762 30.5477 24.3211
668 2 12.4913 30.6525 23.6
669 2 12.9176 31.1052 25.1099
670 1 29.2738 2.09692 14.6375
671 2 29.1186 1.77885 15.5728
672 2 28.4408 2.52691 14.2892
673 1 15.4685 17.6337 9.69278
674 2 15.8078 18.5732 9.73933
675 2 14.4796 17.6434 9.54472
676 1 8.85585 33.6062 6.81494
677 2 9.75495 33.2111 7.00331
678 2 8.49774 34.0312 7.64629
679 1 3.06694 8.84614 36.0172
680 2 2.58754 9.09202 35.1747
681 2 3.20506 7.85613 36.0453
682 1 20.8212 39.6628 17.4456
683 2 20.4093 40.104 18.2428
684 2 21.0378 38.7117 17.6658
685 1 12.2646 23.6083 18.873
686 2 12.803 23.0302 18.2599
687 2 12.8151 23.8501 19.6721
688 1 23.5632 40.1231 20.329
689 2 24.007 39.7904 19.4969
690 2 22.9915 39.3986 20.7143
691 1 30.823 32.2874 20.4938
692 2 30.9878 32.4009 19.514
693 2 29.9638 32.735 20.7414
694 1 10.5917 0.434 34.8962
695 2 10.2139 0.339508 35.8172
696 2 10.3257 39.9538 34.344
697 1 29.7911 28.4614 9.83125
698 2 29.7973 28.6185 8.84367
699 2 29.7092 27.4814 10.0124
700 1 20.7042 15.3892 36.5444
701 2 21.6649 15.4815 36.2825
702 2 20.132 15.889 35.8942
703 1 18.9731 36.8664 32.3366
704 2 19.2126 37.6231 32.9449
705 2 18.1467 36.4159 32.6745
706 1 17.1248 4.31567 29.7548
707 2 17.0754 3.3871 29.3869
708 2 17.8043 4.84125 29.2429
709 1 20.9738 10.0697 15.5911
710 2 20.777 10.5062 14.7132
711 2 21.9554 10.1201 15.7757
712 1 15.3436 5.77151 17.6828
713 2 14.5975 6.39667 17.9121
714 2 15.8876 5.58742 18.5015
715 1 0.332256 32.1955 18.3768
716 2 1.21963 31.8631 18.0573
717 2 40.0919 31.4234 18.6947
718 1 13.8914 12.1202 13.609
719 2 13.2267 11.9315 14.3318
720 2 14.2131 11.2576 13.2186
721 1 19.8554 29.7616 25.6784
722 2 19.7743 30.0299 26.6383
723 2 19.9144 30.5803 25.1073
724 1 3.20546 26.2965 37.2567
725 2 3.96344 26.2826 36.6045
726 2 2.69223 25.4409 37.1895
727 1 20.8622 35.5852 21.3732
728 2 19.9342 35.9403 21.2599
729 2 20.8237 34.6822 21.801
730 1 24.1875 4.71588 6.36396
731 2 24.6102 4.6814 5.45837
732 2 24.3286 3.84306 6.83116
733 1 36.2056 7.89302 10.3991
734 2 35.6941 8.51598 9.80715
735 2 36.6054 8.4072 11.1578
736 1 2.756 29.5334 33.2731
737 2 3.23983 29.9354 34.0505
738 2 1.78885 29.7839 33.3168
739 1 30.8667 18.7422 24.1996
740 2 31.4235 17.9197 24.3161
741 2 31.2755 19.3246 23.497
742 1 15.7315 33.5659 38.8691
743 2 14.8933 33.0216 38.9038
744 2 15.774 34.0572 37.9992
745 1 35.8708 5.06222 8.64522
746 2 35.0417 5.02297 9.20283
747 2 35.8876 4.2839 8.01757
748 1 31.0222 29.401 38.2181
749 2 31.983 29.1395 38.1257
750 2 30.9314 30.0866 38.9403
751 1 7.57354 7.63813 10.3949
752 2 6.92683 7.46737 11.1382
753 2 8.16564 6.84072 10.2784
754 1 28.2833 29.1872 24.2348
755 2 28.4846 28.3933 24.8086
756 2 28.5437 28.9899 23.2896
757 1 10.7548 32.3896 3.90073
758 2 9.96491 32.6144 3.33018
759 2 10.4833 31.7288 4.60042
760 1 4.6845 32.9613 18.926
761 2 5.13253 32.653 18.0869
762 2 4.50441 32.1745 19.5162
763 1 6.40323 18.3493 20.8607
764 2 6.98134 18.0499 21.6197
765 2 5.76268 17.6195 20.6216
766 1 31.1776 7.3469 7.42246
767 2 32.1135 7.2922 7.07434
768 2 30.6371 7.94681 6.83258
769 1 12.2807 22.6824 12.0282
770 2 12.7027 22.0901 12.7146
771 2 12.9115 22.8071 11.2624
772 1 1.3476 29.9074 0.562268
773 2 1.23514 30.1073 39.8989
774 2 1.47952 30.7617 1.06495
775 1 37.0631 18.5847 39.9613
776 2 36.6194 19.228 0.275288
777 2 37.06 17.6708 0.0572261
778 1 32.4584 1.8835 5.03899
779 2 31.5482 1.82362 5.44894
780 2 32.5904 1.11954 4.40737
781 1 13.2515 14.5355 18.9148
782 2 13.4699 14.6661 19.8819
783 2 12.6542 13.7401 18.8124
784 1 25.5916 23.4642 26.8711
785 2 26.2303 24.1959 27.1093
786 2 24.6634 23.7363 27.125
787 1 28.4075 26.3716 17.9925
788 2 27.7167 25.909 17.4368
789 2 29.2476 25.8292 17.9994
790 1 32.2844 5.69571 13.9415
791 2 33.1824 5.28154 14.0895
792 2 31.6272 5.30614 14.5868
793 1 8.3155 28.3427 24.5464
794 2 9.17909 27.8457 24.6313
795 2 8.29839 29.0959 25.2039
796 1 2.98237 37.889 19.4421
797 2 2.92409 37.8537 20.4398
798 2 3.24623 36.9904 19.0916
799 1 37.4675 37.441 31.3394
800 2 38.1166 38.1991 31.402
801 2 36.5546 37.7991 31.1436
802 1 25.1798 25.0748 9.76325
803 2 25.7648 25.8841 9.71112
804 2 24.8278 24.8587 8.85252
805 1 3.52261 2.96274 38.8935
806 2 2.70835 2.79271 38.3384
807 2 3.93408 3.83331 38.6237
808 1 5.94835 13.9455 3.65682
809 2 6.47992 13.1123 3.50433
810 2 6.01185 14.2099 4.61913
811 1 9.57054 3.16915 30.53
812 2 10.5022 3.39437 30.2448
813 2 9.20059 2.45978 29.93
814 1 28.115 29.8983 11.4872
815 2 28.9101 29.6253 10.9457
816 2 27.3727 29.244 11.3426
817 1 37.2373 14.1647 23.7376
818 2 38.1091 14.5007 23.381
819 2 37.3235 13.9902 24.7185
820 1 34.6811 17.8916 15.0763
821 2 34.9466 17.1569 15.7005
822 2 35.4788 18.4582 14.8698
823 1 17.4475 28.4591 17.385
824 2 17.9104 29.293 17.0845
825 2 18.1232 27.8107 17.7357
826 1 39.7168 14.9604 23.2608
827 2 40.083 14.0346 23.1671
828 2 40.0185 15.3518 24.1302
829 1 30.7234 31.1211 0.13217
830 2 31.4787 31.3948 0.727699
831 2 29.8825 31.5719 0.431704
832 1 15.7226 1.97638 1.70563
833 2 15.9271 1.01961 1.91244
834 2 16.1921 2.56697 2.362
835 1 10.3207 1.72179 6.76395
836 2 9.83786 2.05117 5.95257
837 2 10.6852 0.807572 6.58675
838 1 13.8296 24.0523 21.2275
839 2 14.8169 24.2104 21.2415
840 2 13.6457 23.0799 21.3712
841 1 16.4699 35.4931 0.324497
842 2 16.0317 36.2012 40.0809
843 2 16.3199 34.5992 40.212
844 1 11.7137 6.39753 16.8166
845 2 12.2249 6.67944 16.0047
846 2 12.0544 6.89495 17.6144
847 1 27.4986 28.2578 5.81983
848 2 28.3018 27.6711 5.7166
849 2 27.791 29.1854 6.05233
850 1 7.95351 3.03483 35.215
851 2 8.62711 3.68514 34.8638
852 2 7.7383 2.36262 34.5066
853 1 9.08644 39.4544 31.2239
854 2 9.17826 39.3279 32.2116
855 2 9.94409 39.8098 30.8523
856 1 11.2006 28.7754 20.6801
857 2 10.8742 29.4536 20.0216
858 2 10.7502 27.8995 20.5075
859 1 2.22622 10.7674 2.09919
860 2 2.78696 11.5505 2.36806
861 2 1.81725 10.3551 2.91329
862 1 11.3069 15.3629 21.8186
863 2 10.8043 15.5803 20.9818
864 2 12.087 15.982 21.9092
865 1 6.87302 36.6287 19.4324
866 2 6.86581 36.9643 20.3743
867 2 6.13835 37.0688 18.916
868 1 5.07692 40.2669 20.281
869 2 4.24662 0.275599 20.7382
870 2 4.84249 39.9045 19.379
871 1 29.8862 9.26645 6.07329
872 2 29.9408 10.2562 6.20533
873 2 28.9422 9.0093 5.86647
874 1 21.985 39.6846 32.6791
875 2 22.8409 40.1854 32.5506
876 2 22.1245 38.9514 33.3447
877 1 33.1202 24.8356 3.08534
878 2 33.5912 25.2621 3.85749
879 2 33.7906 24.3965 2.48722
880 1 2.14562 38.6388 24.4761
881 2 1.96427 39.6219 24.4507
882 2 1.32928 38.1574 24.7953
883 1 29.0515 12.5061 0.537567
884 2 28.8056 11.6792 1.04321
885 2 29.7708 12.2913 40.1869
886 1 6.77412 32.3382 5.45604
887 2 7.58882 32.7096 5.90139
888 2 6.4144 33.0084 4.80681
889 1 19.8466 34.6449 33.153
890 2 19.3421 35.4864 32.9596
891 2 20.4756 34.801 33.9146
892 1 14.0539 14.4005 26.2257
893 2 13.8681 14.5568 27.1958
894 2 14.7194 13.6604 26.1288
895 1 28.2691 39.0145 11.3788
896 2 28.9558 39.5933 11.8185
897 2 28.562 38.0593 11.4207
898 1 35.435 8.56411 27.9816
899 2 35.7129 9.07868 28.7927
900 2 35.9027 7.68028 27.9711
901 1 10.7689 25.5884 3.48527
902 2 11.3519 24.9215 3.94939
903 2 10.0911 25.1082 2.92847
904 1 32.823 28.8645 23.621
905 2 33.237 28.4243 22.8243
906 2 32.5963 29.8126 23.3978
907 1 32.1461 5.50903 17.5361
908 2 32.3803 6.4517 17.2984
909 2 31.4922 5.14997 16.8701
910 1 30.1278 15.989 32.7882
911 2 30.4545 16.481 31.9812
912 2 30.0661 15.0127 32.581
913 1 22.5943 29.5626 31.7397
914 2 22.3237 29.952 32.6201
915 2 22.2481 30.1392 30.9997
916 1 38.9117 9.62632 11.6687
917 2 39.7444 10.1088 11.3971
918 2 38.1424 9.95458 11.1205
919 1 4.0104 1.03067 7.54563
920 2 3.41676 1.3944 8.26347
921 2 3.81441 1.49692 6.68296
922 1 33.8785 37.4666 1.05318
923 2 33.5824 36.9242 0.266898
924 2 34.7202 37.0781 1.4281
925 1 12.0489 17.3254 9.94775
926 2 11.7528 18.0195 9.29158
927 2 11.247 16.8961 10.3635
928 1 33.6131 25.044 28.427
929 2 34.2409 25.5276 29.0368
930 2 32.8203 24.7272 28.9477
931 1 6.40653 30.1446 19.8954
932 2 6.42239 29.2025 19.5604
933 2 7.22389 30.6252 19.5776
934 1 16.3361 32.9566 13.8878
935 2 17.3346 32.9125 13.8534
936 2 16.0072 32.4472 14.683
937 1 27.6449 15.3468 30.7953
938 2 26.9852 15.2847 31.5442
939 2 27.3061 14.8302 30.0089
940 1 26.2179 8.45963 15.5348
941 2 27.1805 8.34529 15.7805
942 2 26.134 8.53358 14.5411
943 1 14.8852 4.81644 15.1691
944 2 14.8906 5.21781 16.085
945 2 15.3648 5.42415 14.5361
946 1 22.0296 27.8206 15.0245
947 2 22.0265 28.7892 15.2731
948 2 21.8946 27.2654 15.8452
949 1 29.2554 2.75816 19.7291
950 2 29.9369 2.09653 20.0418
951 2 29.6118 3.68498 19.8475
952 1 16.4622 18.6139 14.3181
953 2 16.6303 17.819 14.9011
954 2 15.7829 18.3795 13.6227
955 1 12.3272 19.8544 19.5577
956 2 11.4584 19.8401 20.0528
957 2 12.1631 19.6583 18.591
958 1 8.60967 11.2355 33.3329
959 2 8.45349 10.442 33.9211
960 2 9.592 11.3562 33.1899
961 1 1.73364 9.30242 7.0724
962 2 1.0505 8.61373 7.31535
963 2 1.45375 10.1917 7.43419
964 1 38.0814 38.4096 40.2749
965 2 37.3863 38.9776 39.8342
966 2 38.1744 37.5486 39.7748
967 1 11.2577 12.1416 27.7373
968 2 12.0501 12.0833 28.3446
969 2 11.548 11.9793 26.7942
970 1 19.47 38.0341 11.1405
971 2 19.932 37.4488 10.4741
972 2 20.1118 38.7202 11.483
973 1 14.3793 30.9044 28.8863
974 2 13.8268 30.695 29.6931
975 2 15.0948 30.2133 28.7838
976 1 6.89673 26.4755 25.9515
977 2 5.89924 26.5355 25.9139
978 2 7.28975 26.9672 25.1745
979 1 39.2544 31.1152 2.57391
980 2 39.2953 30.1311 2.74695
981 2 38.9858 31.2757 1.62413
982 1 35.8111 2.30316 10.2538
983 2 36.1793 2.26763 9.3247
984 2 34.9292 2.77468 10.245
985 1 9.82101 17.3501 19.8947
986 2 9.16458 17.3065 20.6479
987 2 9.35099 17.1648 19.0318
988 1 17.5053 22.9691 28.4321
989 2 16.6033 23.2457 28.7636
990 2 18.0916 23.775 28.3497
991 1 21.9936 4.64284 38.9659
992 2 22.1488 4.09664 39.789
993 2 22.5854 4.31282 38.2304
994 1 7.48341 23.485 29.5323
995 2 7.68948 24.0435 28.7288
996 2 8.25118 23.525 30.1717
997 1 38.6241 31.7218 0.166248
998 2 39.361 31.9427 39.8374
999 2 37.923 31.1871 40.0044
1000 1 18.2043 2.91466 33.9519
1001 2 18.9684 2.35214 33.6363
1002 2 17.3464 2.42023 33.812
1003 1 3.66042 4.0133 22.15
1004 2 3.4034 4.26599 23.0828
1005 2 4.54546 3.54796 22.1626
1006 1 5.34355 25.5238 18.4985
1007 2 5.37485 24.5775 18.177
1008 2 4.4067 25.7562 18.7599