ITEM: TIMESTEP
0
ITEM: NUMBER OF ATOMS
2180
ITEM: BOX BOUNDS pp pp pp
0.000 40.310
0.000 40.310
0.000 40.310
ITEM: ATOMS id type xu yu zu
 1 1 32.193 27.809 5.07
 2 1 0.282 3.12 39.209
 3 1 5.742 20.12 35.792
 4 1 23.688 3.212 27.679
 5 1 29.426 21.761 9.94
 6 1 38.566 5.96 9.134
 7 1 20.408 21.666 33.312
 8 1 2.18 11.979 33.366
 9 1 11.665 8.846 12.018
 10 1 38.82 26.662 4.187
 11 1 28.33 10.332 31.304
 12 1 28.43 6.038 16.778
 13 1 36.288 21.033 31.385
 14 1 38.519 22.283 22.543
 15 1 33.756 10.379 4.507
 16 1 32.716 0.498 32.309
 17 1 27.981 6.252 14.091
 18 1 16.927 33.17 27.677
 19 1 32.862 33.446 34.719
 20 1 13.435 29.566 1.468
 21 1 5.945 2.165 22.159
 22 1 19.206 17.325 35.166
 23 1 13.353 7.048 19.185
 24 1 5.773 13.841 26.154
 25 1 5.925 15.926 1.857
 26 1 36.947 24.475 1.012
 27 1 18.815 12.076 35.235
 28 1 33.707 33.846 16.804
 29 1 5.433 17.514 27.079
 30 1 2.384 4.398 18.75
 31 1 17.446 22.616 16.704
 32 1 33.332 36.23 38.78
 33 1 33.383 12.564 26.538
 34 1 12.306 38.169 32.424
 35 1 16.792 31.482 9.933
 36 1 25.91 29.825 25.161
 37 1 0.448 20.495 0.858
 38 1 11.749 12.021 18.434
 39 1 35.478 14.32 35.506
 40 1 8.98 36.607 30.185
 41 1 18.382 28.158 21.022
 42 1 8.453 21.578 18.217
 43 1 11.322 4.238 26.507
 44 1 37.967 12.856 0.155
 45 1 37.362 10.885 9.72
 46 1 13.328 3.168 1.388
 47 1 15.703 10.012 13.012
 48 1 22.119 37.164 13.903
 49 1 9.589 20 26.541
 50 1 36.781 5.55 19.017
 51 1 6.935 27.832 4.818
 52 1 33.098 40.044 21.57
 53 1 38.682 33.891 18.833
 54 1 36.572 31.805 18.861
 55 1 26.279 36.022 40.13
 56 1 15.892 20.337 22.598
 57 1 10.726 16.9 28.587
 58 1 36.621 19.667 14.722
 59 1 39.792 31.91 22.907
 60 1 34.561 26.257 5.387
 61 1 10.159 30.311 5.778
 62 1 13.741 34.132 9.991
 63 1 24.155 12.5 1.555
 64 1 38.717 12.184 15.021
 65 1 11.54 14.814 34.99
 66 1 38.295 31.695 29.43
 67 1 19.005 37.154 7.244
 68 1 30.532 27.025 14.721
 69 1 1.137 0.874 38.376
 70 1 10.753 38.373 13.757
 71 1 21.908 1.72 7.332
 72 1 13.574 14.196 6.981
 73 1 3.255 28.166 10.537
 74 1 24.523 29.196 1.109
 75 1 11.236 13.728 3.203
 76 1 31.653 6.829 3.159
 77 1 24.136 6.403 9.696
 78 1 7.597 34.565 8.926
 79 1 15.315 25.973 27.43
 80 1 0.055 15.042 27.927
 81 1 33.136 4.58 28.987
 82 1 29.891 26.299 5.464
 83 1 15.395 22.676 14.336
 84 1 40.231 29.419 33.738
 85 1 19.102 6.515 0.53
 86 1 20.096 10.487 30.046
 87 1 23.299 8.37 24.847
 88 1 3.642 22.467 15.181
 89 1 32.181 39.836 35.919
 90 1 24.576 32.233 28.841
 91 1 34.307 35.674 20.932
 92 1 29.316 11.889 26.717
 93 1 11.348 28.2 16.375
 94 1 23.885 32.91 34.616
 95 1 13.092 38.229 36.87
 96 1 7.694 17.203 35.578
 97 1 19.034 18.108 12.768
 98 1 17.594 30.275 2.246
 99 1 20.407 28.133 2.157
 100 1 22.362 26.282 22.037
 101 1 9.435 1.736 9.432
 102 1 16.571 8.85 15.805
 103 1 15.74 27.795 22.134
 104 1 37.47 14.672 26.495
 105 1 25.255 23.106 37.493
 106 1 18.557 10.889 38.09
 107 1 3.261 12.644 14.021
 108 1 34.945 0.04 5.76
 109 1 23.357 19.041 11.953
 110 1 25.941 5.443 11.706
 111 1 5.909 21.383 28.729
 112 1 20.02 15.775 1.53
 113 1 22.06 16.083 21.156
 114 1 4.369 28.617 17.452
 115 1 3.242 27.771 23.362
 116 1 1.427 34.996 7.332
 117 1 12.944 32.891 18.686
 118 1 2.615 20.558 25.79
 119 1 16.186 0.434 10.034
 120 1 37.553 13.506 37.025
 121 1 38.627 27.033 37.566
 122 1 33.213 32.139 29.927
 123 1 37.293 1.972 26.017
 124 1 12.838 24.291 37.496
 125 1 7.003 27.55 19.305
 126 1 10.248 5.946 30.856
 127 1 27.33 29.357 1.125
 128 1 2.532 20.02 30.479
 129 1 32.917 22.15 7.388
 130 1 34.703 30.366 4.145
 131 1 14.247 36.325 15.205
 132 1 14.488 25.417 3.701
 133 1 38.453 9.23 26.632
 134 1 19.787 16.501 39.036
 135 1 27.001 19.617 34.709
 136 1 28.111 31.952 0.326
 137 1 21.81 6.061 24.76
 138 1 35.178 2.945 29.368
 139 1 3.428 32.6 30.04
 140 1 22.606 10.794 28.663
 141 1 33.758 23.782 10.179
 142 1 6.538 12.346 31.726
 143 1 4.199 23.741 28.184
 144 1 4.096 3.406 25.864
 145 1 0.819 4.12 21.724
 146 1 18.555 24.09 6.541
 147 1 22.455 34.692 10.292
 148 1 5.442 23.54 32.61
 149 1 14.473 22.779 1.705
 150 1 25.514 11.133 26.445
 151 1 8.354 35.505 14.139
 152 1 9.704 19.781 16.439
 153 1 34.955 16.531 19.72
 154 1 25.903 7.768 29.203
 155 1 0.802 27.179 24.216
 156 1 23.24 31.564 12.991
 157 1 15.274 6.25 1.478
 158 1 0.671 14.264 16.532
 159 1 7.204 34.473 22.177
 160 1 35.4 12.438 10.268
 161 1 9.657 5.967 0.677
 162 1 27.474 34.395 1.508
 163 1 36.087 6.018 12.467
 164 1 25.03 30.526 31.094
 165 1 17.86 21.065 14.406
 166 1 11.562 23.703 39.946
 167 1 25.719 33.189 16.854
 168 1 39.511 8.111 7.636
 169 1 13.141 27.769 28.794
 170 1 19.897 36.66 29.888
 171 1 39.629 19.37 39.058
 172 1 16.873 36.041 34.057
 173 1 14.424 23.226 10.303
 174 1 23.772 19.084 20.379
 175 1 0.097 12.391 27.143
 176 1 8.181 11.032 29.111
 177 1 2.766 7.718 14.889
 178 1 21.021 26.192 9.798
 179 1 16.41 21.614 33.856
 180 1 37.37 6.362 15.028
 181 1 28.119 17.883 11.095
 182 1 23.972 34.091 13.913
 183 1 15.123 39.443 18.397
 184 1 3.192 26.292 1.8
 185 1 39.116 25.675 22.777
 186 1 15.242 38.789 21.172
 187 1 15.875 12.115 26.176
 188 1 12.309 11.456 34.725
 189 1 8.133 4.874 10.687
 190 1 9.409 13.107 14.505
 191 1 4.697 33.815 21.585
 192 1 22.867 35.639 25.513
 193 1 21.564 39.522 26.677
 194 1 23.613 28.77 8.628
 195 1 30.336 31.169 27.032
 196 1 2.501 15.479 23.4
 197 1 23.877 26.934 28.201
 198 1 15.986 9.568 36.97
 199 1 13.923 7.187 24.228
 200 1 4.455 6.891 33.305
 201 1 32.861 18.166 18.768
 202 1 37.209 33.179 16.662
 203 1 12.404 38.133 11.031
 204 1 18.713 13.794 2.61
 205 1 0.173 2.11 10.384
 206 1 5.411 12.227 37.04
 207 1 0.256 32.94 38.519
 208 1 9.727 23.731 31.521
 209 1 17.126 18.22 26.249
 210 1 33.433 1.521 39.065
 211 1 35.734 23.061 11.802
 212 1 32.085 27.5 17.124
 213 1 18.872 26.874 32.569
 214 1 34.678 37.789 33.404
 215 1 16.192 0.045 5.044
 216 1 26.015 15.929 35.652
 217 1 27.355 31.265 21.443
 218 1 8.763 10.077 11.4
 219 1 23.035 3.651 23.902
 220 1 30.164 36.77 12.913
 221 1 20.509 0.934 10.292
 222 1 20.024 3.757 21.078
 223 1 13.124 30.585 24.325
 224 1 29.219 2.103 14.67
 225 1 15.433 17.687 9.687
 226 1 8.886 33.608 6.872
 227 1 3.048 8.805 35.972
 228 1 20.81 39.635 17.503
 229 1 12.325 23.589 18.883
 230 1 23.556 40.064 20.304
 231 1 30.784 32.318 20.453
 232 1 10.556 0.385 34.916
 233 1 29.787 28.415 9.786
 234 1 20.726 15.422 36.493
 235 1 18.94 36.883 32.389
 236 1 17.16 4.294 29.706
 237 1 21.018 10.097 15.552
 238 1 15.333 5.796 17.741
 239 1 0.351 32.134 18.377
 240 1 13.872 12.062 13.627
 241 1 19.854 29.822 25.7
 242 1 3.219 26.248 37.217
 243 1 20.808 35.555 21.391
 244 1 24.219 4.666 6.34
 245 1 36.2 7.956 10.408
 246 1 2.729 29.569 33.319
 247 1 30.921 18.729 24.167
 248 1 15.687 33.563 38.823
 249 1 35.826 5.017 8.641
 250 1 31.07 29.425 38.253
 251 1 7.571 7.584 10.43
 252 1 28.309 29.132 24.214
 253 1 10.696 32.366 3.908
 254 1 4.7 32.9 18.912
 255 1 6.4 18.292 20.89
 256 1 31.2 7.377 7.37
 257 1 12.339 22.656 12.024
 258 1 1.349 29.966 0.536
 259 1 37.038 18.57 40.018
 260 1 32.415 1.837 5.027
 261 1 13.231 14.498 18.963
 262 1 25.576 23.52 26.898
 263 1 28.415 26.316 17.962
 264 1 32.297 5.651 13.985
 265 1 8.363 28.357 24.587
 266 1 2.993 37.837 19.478
 267 1 37.452 37.503 31.332
 268 1 25.193 25.108 9.71
 269 1 3.501 3.002 38.848
 270 1 5.981 13.914 3.702
 271 1 9.602 3.142 30.481
 272 1 28.118 29.846 11.449
 273 1 37.29 14.174 23.773
 274 1 34.74 17.883 15.099
 275 1 17.511 28.469 17.388
 276 1 39.754 14.93 23.304
 277 1 30.718 31.161 0.182
 278 1 15.76 1.956 1.754
 279 1 10.314 1.689 6.709
 280 1 13.875 24.007 21.237
 281 1 16.437 35.483 0.27
 282 1 11.761 6.441 16.816
 283 1 27.56 28.277 5.827
 284 1 7.979 3.034 35.156
 285 1 9.139 39.467 31.258
 286 1 11.158 28.764 20.634
 287 1 2.234 10.788 2.159
 288 1 11.322 15.409 21.777
 289 1 6.832 36.672 19.456
 290 1 5.018 40.265 20.256
 291 1 29.837 9.307 6.069
 292 1 22.04 39.672 32.709
 293 1 33.183 24.835 3.095
 294 1 2.091 38.667 24.492
 295 1 29.078 12.448 0.529
 296 1 6.799 32.396 5.445
 297 1 19.854 34.7 33.185
 298 1 14.081 14.368 26.274
 299 1 28.323 38.993 11.406
 300 1 35.476 8.543 28.026
 301 1 10.764 25.524 3.48
 302 1 32.833 28.893 23.564
 303 1 32.123 5.541 17.486
 304 1 30.143 15.962 32.732
 305 1 22.56 29.617 31.748
 306 1 38.915 9.671 11.623
 307 1 3.966 1.077 7.538
 308 1 33.909 37.415 1.03
 309 1 11.988 17.34 9.935
 310 1 33.604 25.053 28.49
 311 1 6.453 30.119 19.859
 312 1 16.373 32.926 13.93
 313 1 27.589 15.315 30.793
 314 1 26.267 8.458 15.493
 315 1 14.912 4.872 15.185
 316 1 22.022 27.844 15.083
 317 1 29.313 2.773 19.753
 318 1 16.434 18.557 14.312
 319 1 12.27 19.842 19.532
 320 1 8.656 11.199 33.358
 321 1 1.68 9.313 7.106
 322 1 38.048 38.394 40.223
 323 1 11.318 12.13 27.718
 324 1 19.531 38.04 11.123
 325 1 14.388 30.854 28.925
 326 1 6.863 26.507 25.906
 327 1 39.241 31.069 2.531
 328 1 35.782 2.327 10.202
 329 1 9.758 17.337 19.889
 330 1 17.487 23.029 28.446
 331 1 22.035 4.594 38.971
 332 1 7.537 23.518 29.523
 333 1 38.626 31.705 0.104
 334 1 18.199 2.856 33.927
 335 1 3.695 4.001 22.203
 336 1 5.294 25.484 18.496
 337 1 11.656 11.266 38.679
 338 1 10.636 37.551 38.562
 339 1 4.117 35.019 23.871
 340 1 7.936 11.645 18.164
 341 1 32.783 26.026 34.431
 342 1 32.912 34.176 1.367
 343 1 34.79 14.626 38.577
 344 1 8.895 1.191 0.207
 345 1 16.183 36.793 17.559
 346 1 7.897 22.296 8.435
 347 1 22.042 5.412 7.971
 348 1 7.911 22.773 39.583
 349 1 1.327 17.534 17.336
 350 1 11.698 9.664 30.908
 351 1 24.339 34.691 23.296
 352 1 23.752 3.474 11.823
 353 1 10.886 22.779 23.045
 354 1 6.854 30.077 36.857
 355 1 32.252 20.195 13.208
 356 1 36.154 39.725 26.853
 357 1 13.784 28.94 20.28
 358 1 35.338 34.187 38.298
 359 1 13.558 17.112 21.46
 360 1 31.654 32.255 32.241
 361 1 12.112 14.399 31.018
 362 1 0.396 18.801 22.191
 363 1 2.221 24.938 4.207
 364 1 1.749 17.954 7.238
 365 1 10.145 10.686 4.752
 366 1 13.682 20.673 13.309
 367 1 33.323 36.003 23.526
 368 1 20.976 34.154 29.259
 369 1 38.829 0.816 23.152
 370 1 28.815 35.074 25.843
 371 1 25.009 36.568 7.682
 372 1 21.317 28.069 4.972
 373 1 20.096 38.013 35.505
 374 1 28.145 16.684 37.638
 375 1 1.399 16.48 12.887
 376 1 18.947 3.092 23.486
 377 1 39.357 10.926 1.144
 378 1 7.561 1.841 32.749
 379 1 3.746 2.533 16.933
 380 1 26.529 33.782 35.137
 381 1 32.003 11.018 23.788
 382 1 26.396 16.576 24.881
 383 1 8.931 19.111 31.652
 384 1 10.635 20.106 35.104
 385 1 16.185 5.501 39.099
 386 1 4.64 35.226 9.226
 387 1 39.792 37.74 25.227
 388 1 31.494 24.409 7.154
 389 1 0.152 6.672 30.801
 390 1 5.085 29.657 14.698
 391 1 17.613 27.914 4.049
 392 1 5.236 35.277 0.159
 393 1 3.82 30.786 20.407
 394 1 13.301 10.002 8.352
 395 1 12.473 0.833 3.94
 396 1 0.589 36.783 3.474
 397 1 20.418 33.305 11.526
 398 1 35.951 36.15 28.146
 399 1 27.719 14.617 16.054
 400 1 38.327 22.78 32.663
 401 1 38.128 0.966 18.933
 402 1 29.485 29.292 13.914
 403 1 31.296 24.963 1.173
 404 1 31.77 22.397 11.367
 405 1 0.984 4.99 3.41
 406 1 35.711 12.191 13.983
 407 1 10.025 33.521 11.429
 408 1 37.185 4.19 22.514
 409 1 19.058 36.167 37.085
 410 1 32.254 18.905 38.849
 411 1 35.224 15.189 16.308
 412 1 27.317 7.347 24.861
 413 1 6.425 15.032 6.282
 414 1 11.796 7.347 34.365
 415 1 3.259 15.847 31.575
 416 1 12.852 6.999 29.311
 417 1 6.207 0.561 9.12
 418 1 38.492 28.1 17.657
 419 1 20.445 30.126 38.203
 420 1 28.14 1.386 10.171
 421 1 6.566 6.119 12.6
 422 1 6.976 3.895 25.466
 423 1 9.775 32.293 20.219
 424 1 35.563 1.042 21.627
 425 1 21.125 13.202 33.652
 426 1 2.847 14.933 8.63
 427 1 14.035 23.846 24.49
 428 1 23.642 20.766 14.983
 429 1 10.557 1.899 16.537
 430 1 13.512 14.091 21.74
 431 1 37.139 33.766 23.467
 432 1 38.679 29.403 36.246
 433 1 38.018 23.303 36.514
 434 1 15.099 12.025 21.111
 435 1 8.786 22.373 24.906
 436 1 21.418 30.282 19.778
 437 1 8.554 35.166 4.703
 438 1 15.405 31.186 12.268
 439 1 14.726 7.102 5.173
 440 1 23.589 37.618 36.592
 441 1 30.47 21.002 38.846
 442 1 5.536 11.223 10.342
 443 1 16.437 33.821 35.839
 444 1 24.194 20.122 33.647
 445 1 3.147 11.006 16.257
 446 1 36.224 6.059 28.455
 447 1 8.026 38.501 14.43
 448 1 1.661 8.566 33.07
 449 1 31.338 8.46 24.742
 450 1 1.862 38.661 35.004
 451 1 6.869 5.612 30.241
 452 1 36.028 0.629 12.86
 453 1 30.342 6.324 0.574
 454 1 23.599 29.734 5.207
 455 1 16.638 24.953 18.253
 456 1 37.247 29.79 38.854
 457 1 34.061 22.658 35.437
 458 1 9.693 14.847 9.823
 459 1 1.765 28.596 2.9
 460 1 16.134 13.535 13.872
 461 1 17.724 26.871 10.259
 462 1 39.958 27.329 39.987
 463 1 9.77 11.933 24.152
 464 1 17.7 24.986 14.304
 465 1 19 10.218 21.164
 466 1 23.386 38.323 28.75
 467 1 33.052 35.553 30.163
 468 1 17.5 20.205 29.415
 469 1 14.711 37.135 4.078
 470 1 26.67 8.088 2.223
 471 1 3.908 23.047 9.271
 472 1 18.029 20.959 26.393
 473 1 25.698 23.011 17.97
 474 1 16.786 22.827 9.28
 475 1 24.692 9.348 38.821
 476 1 1.477 18.567 4.679
 477 1 37.945 13.872 31.853
 478 1 6.362 19.005 25.012
 479 1 5.335 20.019 18.684
 480 1 28.638 0.764 21.814
 481 1 7.796 30.025 16.215
 482 1 21.814 2.252 14.893
 483 1 31.155 2.581 38.527
 484 1 34.737 32.245 26.934
 485 1 22.962 32.592 17.948
 486 1 7.402 26.584 35.037
 487 1 14.721 2.168 16.405
 488 1 6.171 21.35 10.972
 489 1 35.898 27.136 34.198
 490 1 20.876 31.757 30.633
 491 1 34.83 38.348 23.167
 492 1 31.245 21.763 15.691
 493 1 39.806 17.701 2.69
 494 1 7.757 10.011 0.413
 495 1 39.749 14.968 6.323
 496 1 24.834 34.364 27.056
 497 1 21.303 4.43 3.788
 498 1 6.661 8.379 7.986
 499 1 16.919 14.96 32.292
 500 1 1.994 7.859 24.235
 501 1 6.139 8.778 23.713
 502 1 14.803 11.795 35.813
 503 1 26.541 33.546 25.009
 504 1 11.86 16.312 25.857
 505 1 11.092 22.063 37.303
 506 1 29.535 2.633 29.184
 507 1 33.321 37.446 26.959
 508 1 0.743 31.126 15.219
 509 1 9.792 14.275 28.706
 510 1 27.019 26.288 20.465
 511 1 4.599 9.783 38.09
 512 1 17.779 14.993 6.301
 513 1 16.313 32.497 30.553
 514 1 18.279 11.701 0.739
 515 1 31.643 6.227 30.562
 516 1 31.116 9.044 14.43
 517 1 18.965 27.802 24.37
 518 1 18.835 31.152 34.842
 519 1 39.656 35.319 37.212
 520 1 2.785 30.319 13.468
 521 1 33.077 7.881 26.945
 522 1 26.439 18.367 27.034
 523 1 28.933 29.102 28.037
 524 1 29.736 10.264 28.882
 525 1 12.658 34.165 15.62
 526 1 25.786 37.287 22.284
 527 1 39.272 39.767 31.369
 528 1 10.308 24.419 10.16
 529 1 1.432 16.649 20.754
 530 1 13.309 40.215 15.767
 531 1 15.514 20.024 16.756
 532 1 14.891 18.076 18.555
 533 1 38.717 1.185 3.739
 534 1 3.232 23.628 6.275
 535 1 26.415 23.406 11.545
 536 1 0.779 31.983 9.177
 537 1 29.528 19.983 14.002
 538 1 32.398 31.902 25.402
 539 1 9.988 8.732 1.206
 540 1 12.818 37.9 17.135
 541 1 14.863 29.247 17.273
 542 1 32.426 17.436 31.162
 543 1 33.399 32.993 13.811
 544 1 2.622 18.209 23.855
 545 1 29.475 20.962 29.254
 546 1 10.101 28.212 31.816
 547 1 24.394 9.692 1.247
 548 1 37.527 8.033 24.61
 549 1 21.763 14.067 28.502
 550 1 35.519 34.692 4.946
 551 1 5.397 3.338 15.132
 552 1 11.166 23.377 34.426
 553 1 39.858 8.847 3.304
 554 1 32.519 16.89 21.516
 555 1 12.049 0.646 24.362
 556 1 2.44 2.816 9.229
 557 1 36.827 15.158 7.077
 558 1 29.447 34.015 22.314
 559 1 14.16 9.133 17.14
 560 1 31.041 35.669 8.291
 561 1 38.199 31.253 11.991
 562 1 40.178 39.055 1.93
 563 1 2.283 37.161 5.728
 564 1 24.72 6.161 14.232
 565 1 4.346 30.816 35.284
 566 1 40.276 38.582 38.008
 567 1 6.996 39.774 16.514
 568 1 40.042 20.779 34.973
 569 1 4.808 33.265 25.888
 570 1 32.623 8.873 31.861
 571 1 26.229 35.569 13.905
 572 1 26.874 10.198 8.755
 573 1 15.932 33.993 18.051
 574 1 9.151 13.622 5.538
 575 1 31.915 23.184 37.407
 576 1 27.914 17.655 29.331
 577 1 37.579 37.054 2.29
 578 1 33.266 7.854 19.829
 579 1 18.497 39.286 33.655
 580 1 9.071 17.165 17.119
 581 1 16.686 5.135 20.445
 582 1 24.963 3.087 32.457
 583 1 31.764 13.498 19.892
 584 1 26.21 23.709 29.92
 585 1 7.374 1.013 3.488
 586 1 27.231 17.367 33.376
 587 1 32.191 4.902 39.441
 588 1 29.62 6.823 9.425
 589 1 10.296 34.163 33.679
 590 1 33.469 27.99 1.079
 591 1 11.76 39.519 6.386
 592 1 23.606 10.375 33.787
 593 1 21.179 7.837 18.702
 594 1 34.716 33.932 31.743
 595 1 20.974 23.786 22.578
 596 1 14.019 9.839 5.551
 597 1 11.719 35.827 7.753
 598 1 19.745 30.544 0.628
 599 1 11.597 20.795 39.823
 600 1 36.716 37.768 25.149
 601 1 37.746 15.517 14.941
 602 1 24.737 33.884 31.055
 603 1 11.445 26.824 12.024
 604 1 33.236 14.953 27.788
 605 1 0.68 13.927 13.818
 606 1 9.451 33.941 31.158
 607 1 24.669 23.731 0.067
 608 1 27.262 18.858 15.054
 609 1 4.394 5.519 37.438
 610 1 39.489 38.927 13.522
 611 1 30.476 35.281 29.475
 612 1 35.006 22.868 2.36
 613 1 17.174 3.581 11.227
 614 1 38.341 32.763 9.607
 615 1 3.732 32.031 11.368
 616 1 39.527 19.678 29.45
 617 1 14.091 6.682 35.186
 618 1 7.564 31.353 39.91
 619 1 19.702 27.444 6.961
 620 1 0.25 23.489 27.332
 621 1 9.315 23.683 5.898
 622 1 39.78 18.696 19.035
 623 1 34.128 15.12 9.416
 624 1 35.478 26.09 21.827
 625 1 23.78 26.702 2.143
 626 1 23.147 35.329 5.363
 627 1 26.61 24.883 1.499
 628 1 22.259 38.09 21.711
 629 1 17.751 5.274 24.296
 630 1 22.291 28.536 25.797
 631 1 11.559 4.223 10.585
 632 1 29.749 23.188 20.347
 633 1 5.037 26.881 9.035
 634 1 11.597 3.1 35.558
 635 1 25.538 0.503 15.193
 636 1 36.42 6.887 6.689
 637 1 40.265 8.348 13.533
 638 1 22.686 21.631 28.851
 639 1 25.426 35.361 20.409
 640 1 37.656 17.383 12.778
 641 1 0.012 6.993 21.893
 642 1 18.686 17.154 23.759
 643 1 17.979 16.43 20.902
 644 1 26.518 2.901 18.994
 645 1 17.491 12.128 22.384
 646 1 30.192 22.292 33.927
 647 1 3.993 15.702 11.327
 648 1 23.147 7.645 12.077
 649 1 20.466 27.889 30.295
 650 1 26.347 26.688 31.709
 651 1 32.96 26.537 7.922
 652 1 35.073 12.907 22.008
 653 1 4.717 5.984 20.773
 654 1 25.172 28.325 19.302
 655 1 36.08 14.445 4.599
 656 1 29.258 10.837 18.714
 657 1 2.793 25.038 32.927
 658 1 19.881 5.971 32.928
 659 1 16.164 14.91 11.361
 660 1 7.759 5.902 5.495
 661 1 39.425 27.832 9.644
 662 1 7.072 37.219 26.061
 663 1 21.914 22.814 15.525
 664 1 8.11 2.587 37.771
 665 1 12.201 17.109 31.781
 666 1 33.143 21.491 1.142
 667 1 12.056 8.586 25.684
 668 1 19.986 17.968 10.014
 669 1 24.308 11.864 10.945
 670 1 22.514 17.008 4.963
 671 1 34.106 1.68 35.039
 672 1 22.308 33.9 32.526
 673 1 8.666 7.832 29.888
 674 1 5.617 21.979 22.487
 675 1 37.417 9.552 36.437
 676 1 37.335 32.379 33.565
 677 1 15.183 1.088 25.358
 678 1 21.639 4.936 29.877
 679 1 6.358 17.746 8.628
 680 1 35.519 12.581 7.23
 681 1 13.951 17.368 34.074
 682 1 4.223 30.784 9.142
 683 1 20.254 37.779 3.403
 684 1 0.423 35.335 31.756
 685 1 39.691 9.741 31.858
 686 1 5.55 3.457 6.216
 687 1 18.774 2.404 8.744
 688 1 26.285 28.193 27.397
 689 1 6.564 38.233 21.529
 690 1 0.462 25.111 36.29
 691 1 17.883 1.858 25.959
 692 1 23.123 24.335 27.595
 693 1 25.944 28.358 11.181
 694 1 15.423 31.583 16.096
 695 1 34.799 10.552 23.497
 696 1 10.599 6.782 9.979
 697 1 25.103 17.423 31.532
 698 1 20.843 25.367 5.284
 699 1 25.506 5.697 36.583
 700 1 16.989 17.882 38.747
 701 1 8.68 4.813 7.732
 702 1 9.039 0.628 28.099
 703 1 37.191 24.732 29.816
 704 1 11.722 34.514 35.861
 705 1 12.903 18.395 28.415
 706 1 21.91 23.771 33.697
 707 1 27.86 6.976 27.334
 708 1 39.991 14.685 37.435
 709 1 31.743 2.323 21.413
 710 1 3.487 13.081 2.66
 711 1 16.98 34.897 2.929
 712 1 4.292 13.921 33.001
 713 1 27.497 26.642 39.625
 714 1 13.502 28.716 14.05
 715 1 33.35 11.165 38.515
 716 1 13.137 39.697 1.414
 717 1 36.717 9.616 30.471
 718 1 16.411 27.565 31.486
 719 1 12.428 2.425 8.69
 720 1 4.197 35.581 27.439
 721 1 10.351 21.279 32.584
 722 1 31.174 18.748 2.838
 723 1 19.599 1.677 36.776
 724 1 14.295 3.601 7.254
 725 1 35.287 13.433 0.698
 726 1 22.975 14.469 32.244
 727 1 29.163 33.353 27.928
 728 1 32.87 4.161 6.729
 729 1 33.921 19.852 16.816
 730 1 28.418 35.306 4.038
 731 1 20.967 3.888 10.75
 732 1 33.018 9.097 34.653
 733 1 11.404 0.676 30.324
 734 1 14.297 35.438 36.741
 735 1 31.276 26.499 24.071
 736 1 18.603 33.849 25.328
 737 1 1.605 11.647 29.865
 738 1 23.127 15.928 2.027
 739 1 14.977 12.556 8.631
 740 1 4.78 3.405 10.748
 741 1 1.398 35.463 25.129
 742 1 19.574 0.567 19.696
 743 1 26.824 11.02 17.568
 744 1 32.095 34.826 12.224
 745 1 25.928 8.502 12.871
 746 1 36.957 20.624 24.218
 747 1 0.456 6.35 11.291
 748 1 19.365 21.597 6.297
 749 1 0.46 22.823 3.564
 750 1 1.727 3.588 1.368
 751 1 10.279 32.809 0.033
 752 1 12.316 33.977 1.336
 753 1 29.826 0.262 32.424
 754 1 39.559 15.144 40.044
 755 1 17.243 25.123 4.369
 756 1 19.253 23.956 31.857
 757 1 9.913 4.444 16.903
 758 1 24.545 2.401 7.305
 759 1 32.129 30.908 2.449
 760 1 28.649 23.54 40.13
 761 1 25.651 7.915 32.654
 762 1 12.994 26.377 25.48
 763 1 27.997 6.744 21.422
 764 1 8.944 25.514 15.769
 765 1 16.847 23.438 24.925
 766 1 30.475 4.515 15.522
 767 1 26.767 7.895 38.025
 768 1 18.338 10.15 12.301
 769 1 30.148 39.682 19.886
 770 1 3.201 32.907 5.448
 771 1 36.488 8.404 18.737
 772 1 24.194 38.897 6.955
 773 1 15.028 36.508 24.062
 774 1 18.164 26.058 38.859
 775 1 5.817 32.583 34.1
 776 1 24.432 26.362 15.834
 777 1 15.388 18.05 24.023
 778 1 38.282 36.566 12.059
 779 1 24.007 16.436 23.414
 780 1 35.803 20.467 9.337
 781 1 9.636 5.154 23.732
 782 1 15.45 37.921 39.366
 783 1 34.014 38.453 3.639
 784 1 7.348 28.864 32.85
 785 1 36.539 18.151 6.72
 786 1 36.698 27.9 4.956
 787 1 18.681 39.434 26.393
 788 1 26.598 6.486 18.863
 789 1 12.66 30.139 11.848
 790 1 19.697 24.718 28.091
 791 1 34.198 36.429 17.913
 792 1 0.425 36.483 27.881
 793 1 15.196 12.084 4.575
 794 1 7.685 34.466 26.114
 795 1 15.755 5.131 31.987
 796 1 6.413 39.555 27.748
 797 1 28.618 16.727 14.471
 798 1 10.261 6.612 25.899
 799 1 6.895 3.006 8.519
 800 1 13.36 16.025 2.1
 801 1 12.763 2.812 18.222
 802 1 18.502 39.817 3.377
 803 1 26.089 32.166 10.094
 804 1 19.02 33.169 36.622
 805 1 1.95 2.911 27.488
 806 1 20.754 36.566 9.437
 807 1 25.335 1.741 4.232
 808 1 31.402 34.525 24.772
 809 1 26.384 19.796 22.093
 810 1 19.394 2.965 18.259
 811 1 21.36 34.803 35.371
 812 1 21.965 24.07 0.53
 813 1 18.693 9.809 25.134
 814 1 19.342 32.748 13.892
 815 1 35.252 31.628 10.145
 816 1 2.222 2.069 14.27
 817 1 34.376 15.596 30.272
 818 1 19.069 24.53 9.321
 819 1 5.558 22.198 4.093
 820 1 17.62 38.651 19.333
 821 1 26.439 12.784 35.303
 822 1 11.195 9.538 35.958
 823 1 31.907 37.919 6.363
 824 1 20.271 16.346 28.689
 825 1 12.573 18.427 24.4
 826 1 14.098 26.289 12.885
 827 1 30.021 40.227 13.113
 828 1 7.606 5.01 39.441
 829 1 0.137 34.507 22.353
 830 1 14.007 3.302 24.317
 831 1 24.614 0.148 33.232
 832 1 26.048 3.491 38.592
 833 1 27.423 24.666 6.544
 834 1 34.813 0.744 17.093
 835 1 9.893 5.341 35.452
 836 1 39.899 25.816 13.146
 837 1 30.345 29.955 32.893
 838 1 37.417 7.124 21.976
 839 1 30.525 4.482 23.255
 840 1 21.839 1.869 17.558
 841 1 8.714 26.157 30.437
 842 1 38.712 22.906 8.626
 843 1 0.376 31.237 36.434
 844 1 27.161 21.837 5.068
 845 1 3.271 34.43 35.193
 846 1 13.128 0.253 10.037
 847 1 22.362 3.831 32.543
 848 1 11.425 30.624 18.682
 849 1 9.92 34.928 37.743
 850 1 3.046 1.906 30.187
 851 1 29.753 20.667 18
 852 1 8.147 17.842 0.186
 853 1 16.081 30.244 26.284
 854 1 29.197 24.041 8.616
 855 1 7.004 38.17 11.96
 856 1 8.392 13.015 35.325
 857 1 25.379 29 15.644
 858 1 21.297 16.673 15.264
 859 1 31.224 35.216 37.377
 860 1 10.434 29.198 37.063
 861 1 20.229 17.945 32.768
 862 1 4.762 27.439 32.963
 863 1 19.429 33.479 3.681
 864 1 10.574 36.494 10.297
 865 1 4.023 7.815 8.088
 866 1 28.995 8.946 22.735
 867 1 8.482 14.294 1.608
 868 1 29.455 2.826 8.336
 869 1 37.548 3.691 28.234
 870 1 32.473 22.092 18.268
 871 1 35.897 26.366 31.624
 872 1 14.654 3.185 10.926
 873 1 19.324 6.568 26.154
 874 1 30.665 39.713 39.335
 875 1 33.669 21.992 38.947
 876 1 20.109 1.877 5.298
 877 1 12.18 3.269 30.558
 878 1 34.1 5.664 2.963
 879 1 23.457 28.774 12.772
 880 1 17.322 10.394 33.602
 881 1 35.891 28.508 17.209
 882 1 8.744 0.366 18.464
 883 1 3.581 5.896 10.106
 884 1 39.29 20.637 25.752
 885 1 39.227 33.629 35.113
 886 1 26.66 39.14 6.103
 887 1 38.279 30.856 15.717
 888 1 18.624 0.649 22.137
 889 1 8.06 35.533 11.494
 890 1 15.574 19.417 35.654
 891 1 10.582 24.833 13.63
 892 1 1.653 39.415 7.048
 893 1 12.488 19.779 16.192
 894 1 7.982 34.202 18.225
 895 1 8.155 22.614 12.851
 896 1 23.542 24.462 17.287
 897 1 30.662 13.027 32.544
 898 1 34.197 26.494 10.444
 899 1 4.232 27.23 26.28
 900 1 30.414 16.715 35.674
 901 1 14.805 24.202 29.436
 902 1 35.585 0.699 30.756
 903 1 3.101 37.629 22.162
 904 1 30.681 18.838 20.386
 905 1 19.886 24.764 12.454
 906 1 2.503 20.441 8.701
 907 1 3.789 17.177 0.867
 908 1 18.341 32.029 22.144
 909 1 18.507 7.234 21.431
 910 1 23.531 17.555 34.043
 911 1 21.473 40.183 36.966
 912 1 31.73 0.93 25.581
 913 1 30.707 37.42 28.004
 914 1 24.741 16.284 40.123
 915 1 21.18 27.898 39.811
 916 1 26.135 6.415 6.433
 917 1 34.17 10.846 11.89
 918 1 31.92 37.234 34.816
 919 1 38.109 37.439 6.778
 920 1 14.792 1.245 36.036
 921 1 29.102 16.844 3.209
 922 1 33.13 9.938 6.963
 923 1 20.441 6.933 37.367
 924 1 23.458 31.557 9.295
 925 1 24.013 31.291 2.834
 926 1 22.017 38.686 39.424
 927 1 19.225 18.528 2.817
 928 1 31.377 35.076 16.502
 929 1 3.855 8.34 22.064
 930 1 23.998 18.218 17.785
 931 1 35.335 10.485 26.201
 932 1 12.033 16.478 39.277
 933 1 25.13 27.709 4.538
 934 1 12.702 13.681 37.46
 935 1 6.323 2.245 12.552
 936 1 19.198 21.59 21.751
 937 1 34.791 3.807 32.577
 938 1 1.683 25.834 30.563
 939 1 22.51 25.956 7.524
 940 1 17.546 13.448 8.551
 941 1 7.352 13.665 39.491
 942 1 27.542 21.763 20.441
 943 1 22.869 0.115 3.22
 944 1 30.473 30.115 35.529
 945 1 16.565 26.498 36.597
 946 1 12.446 25.662 15.614
 947 1 29.77 17.878 17.638
 948 1 8.921 24.334 1.716
 949 1 38.955 35.282 9.649
 950 1 0.146 16.511 25.485
 951 1 36.578 39.346 8.041
 952 1 8.945 1.969 11.999
 953 1 9.578 26.371 20.291
 954 1 13.693 3.816 28.042
 955 1 33.574 13.74 31.971
 956 1 1.26 10.239 37.639
 957 1 30.353 17.331 9.356
 958 1 4.573 19.104 28.926
 959 1 38.969 5.864 33.273
 960 1 22.246 8.544 2.699
 961 1 27.54 20.669 11.692
 962 1 23.437 9.776 5.076
 963 1 4.313 22.808 1.445
 964 1 30.829 17.753 13.115
 965 1 31.927 33.499 7.19
 966 1 13.59 31.68 2.978
 967 1 35.658 40.225 33.274
 968 1 25.527 13.778 39.949
 969 1 0.34 23.351 33.93
 970 1 33.653 13.227 4.367
 971 1 35.359 0.732 3.186
 972 1 7.92 23.759 34.063
 973 1 38.047 38.803 36.547
 974 1 7.531 14.251 18.341
 975 1 25.199 38.734 10.239
 976 1 1.202 33.559 33.658
 977 1 36.554 11.316 38.582
 978 1 26.887 11.045 12.621
 979 1 8.149 19.498 28.906
 980 1 18.617 5.857 3.274
 981 1 28.581 31.03 6.157
 982 1 30.528 15.49 24.479
 983 1 30.497 28.429 2.818
 984 1 30.736 5.552 11.474
 985 1 1.746 11.39 25.189
 986 1 23.403 18.169 14.647
 987 1 27.14 2.708 1.368
 988 1 3.331 19.84 1.473
 989 1 2.273 36.127 0.167
 990 1 9.72 37.659 6.069
 991 1 26.028 10.489 5.72
 992 1 16.558 31.961 7.251
 993 1 20.035 18.957 27.623
 994 1 14.716 23.725 35.517
 995 1 34.162 38.165 13.69
 996 1 37.193 39.19 10.83
 997 1 14.985 13.035 32.234
 998 1 8.147 24.453 26.889
 999 1 2.691 19.541 19.074
 1000 1 32.864 16.768 24.324
 1001 1 20.131 35.733 5.078
 1002 1 23.406 32.166 22.741
 1003 1 14.505 9.397 10.669
 1004 1 16.171 35.4 5.567
 1005 1 38.476 35.969 29.184
 1006 1 33.103 18.265 9.655
 1007 1 25.667 20.385 16.704
 1008 1 38.629 4.35 6.834
 1009 1 4.591 30.067 39.408
 1010 1 35.926 34.183 14.556
 1011 1 16.967 16.005 15.61
 1012 1 28.609 32.109 24.049
 1013 1 27.434 36.729 17.109
 1014 1 21.365 4.601 13.332
 1015 1 10.646 16.25 6.829
 1016 1 13.28 29.502 9.318
 1017 1 32.91 16.95 33.838
 1018 1 12.158 5.587 22.784
 1019 1 18.383 26.115 1.647
 1020 1 5.5 19.166 12.453
 1021 1 26.75 21.077 29.118
 1022 1 15.321 16.176 39.65
 1023 1 6.859 18.789 33.464
 1024 1 22.756 35.722 15.992
 1025 1 20.902 10.272 6.13
 1026 1 39.64 25.846 26.016
 1027 1 3.144 12.713 10.448
 1028 1 33.407 8.147 38.858
 1029 1 8.874 19.15 4.358
 1030 1 26.884 11.018 38.394
 1031 1 6.221 9.283 30.515
 1032 1 9.036 28.968 8.835
 1033 1 14.773 34.223 26.326
 1034 1 28.837 9.671 1.477
 1035 1 33.813 26.665 26.184
 1036 1 14.84 32.717 5.116
 1037 1 38.408 15.15 18.662
 1038 1 30.007 1.192 6.141
 1039 1 37.971 28.205 14.852
 1040 1 23.569 3.741 36.775
 1041 1 1.823 31.021 25.426
 1042 1 20.138 20.387 19.334
 1043 1 33.967 21.327 20.708
 1044 1 6.241 25.752 15.594
 1045 1 26.564 27.519 13.675
 1046 1 8.305 22.825 21.722
 1047 1 28.421 25.161 15.171
 1048 1 11.604 3.959 13.302
 1049 1 34.888 27.739 12.829
 1050 1 5.72 12.655 12.817
 1051 1 4.081 17.006 17.292
 1052 1 25.862 23.721 20.46
 1053 1 12.724 22.198 6.307
 1054 1 0.121 12.224 22.83
 1055 1 13.365 36.415 39.239
 1056 1 32.947 3.164 24.641
 1057 1 33.26 17.546 1.561
 1058 1 5.846 1.491 39.115
 1059 1 17.89 5.942 36.877
 1060 1 27.411 37.421 30.311
 1061 1 14.739 22.406 39.251
 1062 1 21.01 28.632 36.058
 1063 1 19.198 12.536 5.091
 1064 1 36.833 32.103 3.361
 1065 1 39.102 15.125 3.676
 1066 1 27.317 37.717 8.423
 1067 1 36.848 35.023 25.705
 1068 1 25.329 3.128 14.558
 1069 1 15.71 35.165 29.696
 1070 1 29.511 7.739 12.591
 1071 1 24.777 29.926 21.601
 1072 1 37.023 16.01 30.515
 1073 1 1.667 32.897 0.541
 1074 1 32.329 25.317 20.152
 1075 1 2.852 16.631 3.667
 1076 1 14.69 37.563 27.57
 1077 1 17.724 16.304 9.452
 1078 1 1.165 11.76 39.886
 1079 1 38.793 6 25.866
 1080 1 27.789 38.197 39.08
 1081 1 9.093 38.013 18.713
 1082 1 7.519 31.529 31.878
 1083 1 34.101 14.114 18.72
 1084 1 2.904 1.38 2.458
 1085 1 5.469 33.94 12.973
 1086 1 1.372 11.822 18.294
 1087 1 14.717 28.455 24.664
 1088 1 31.257 37.75 16.958
 1089 1 27.188 4.241 24.908
 1090 1 12.081 37.194 1.601
 1091 1 28.168 5.223 7.919
 1092 1 18.426 5.723 16.821
 1093 1 20.16 7.144 29.151
 1094 1 32.667 39.873 29.801
 1095 1 28.587 11.003 10.692
 1096 1 12.451 22.799 26.315
 1097 1 26.717 5.964 40.044
 1098 1 20.169 7.276 7.134
 1099 1 37.318 30.386 24.037
 1100 1 22.468 13.588 5.045
 1101 1 0.06 17.651 36.991
 1102 1 17.202 34.908 23.292
 1103 1 34.818 7.503 0.869
 1104 1 9.202 12.131 37.758
 1105 1 38.64 7.236 28.504
 1106 1 28.237 33.48 8.626
 1107 1 27.34 35.112 6.675
 1108 1 2.096 34.334 10.433
 1109 1 30.812 36.65 3.942