LAMMPS data file via write_data, version 15 May 2015, timestep = 1000000

6540 atoms
2 atom types
4360 bonds
1 bond types
2180 angles
1 angle types

0.0000000000000000e+00 4.0310000000000002e+01 xlo xhi
0.0000000000000000e+00 4.0310000000000002e+01 ylo yhi
0.0000000000000000e+00 4.0310000000000002e+01 zlo zhi

Masses

1 15.999
2 1.008

Pair Coeffs # lj/cut/coul/long

1 0.15535 3.166
2 0 0

Bond Coeffs # harmonic

1 1000 1

Angle Coeffs # harmonic

1 100 109.47

Atoms # full

4225 1409 1 -8.4760000000000002e-01 3.2949382187607394e+00 2.2520156439068710e+00 5.2021756528767167e+00 0 0 1
4097 1366 2 4.2380000000000001e-01 3.6682568897764671e+00 6.7890775301713742e+00 2.8574296126063432e+00 1 0 -1
4098 1366 2 4.2380000000000001e-01 3.7910203145832373e+00 6.4359489257304983e+00 4.4470389346459429e+00 1 0 -1
4096 1366 1 -8.4760000000000002e-01 3.1560397131390463e+00 6.6515512277592901e+00 3.7052039394605112e+00 1 0 -1
2240 747 2 4.2380000000000001e-01 7.3898002058664425e-01 5.4688376169347608e+00 1.1560737626426638e+01 0 -1 1
4708 1570 1 -8.4760000000000002e-01 5.3461647613636798e-01 1.5845794715935087e+01 1.0021938601119007e+01 0 0 -1
1214 405 2 4.2380000000000001e-01 1.6397219881197309e+00 5.6936933237781178e+00 3.4830963583122689e+00 1 0 -2
4227 1409 2 4.2380000000000001e-01 2.6806925121680738e+00 3.0185038490541976e+00 5.3897948561364055e+00 0 0 1
4951 1651 1 -8.4760000000000002e-01 4.9837333289706542e+00 5.0153636801281145e+00 1.4397803505803812e+00 2 1 0
4952 1651 2 4.2380000000000001e-01 5.7462339829096836e+00 5.4339970185697748e+00 1.9330766757652054e+00 2 1 0
4953 1651 2 4.2380000000000001e-01 5.1992181008026082e+00 4.0589549802868623e+00 1.2426678196317669e+00 2 1 0
1480 494 1 -8.4760000000000002e-01 7.7126761988287669e+00 9.9835257842937164e+00 3.7548223707727812e-01 1 0 1
3257 1086 2 4.2380000000000001e-01 5.2668596592317485e-01 1.2132495902074918e+01 1.7946704494893851e+01 1 -1 -2
4226 1409 2 4.2380000000000001e-01 3.0062232154963673e+00 1.7912195948133398e+00 4.3629401326490100e+00 0 0 1
2250 750 2 4.2380000000000001e-01 1.9698454357559001e+00 2.6750689870568785e+00 1.5629665537359221e+00 1 1 2
1755 585 2 4.2380000000000001e-01 7.6074801534964624e+00 1.8228522370426827e+00 3.9578395385489151e+00 0 0 1
2249 750 2 4.2380000000000001e-01 2.4337674496941970e+00 4.1424467252125599e+00 1.0168834103794924e+00 1 1 2
1753 585 1 -8.4760000000000002e-01 7.3129359918383319e+00 9.9336507279763808e-01 3.4832917955539564e+00 0 0 1
3252 1084 2 4.2380000000000001e-01 2.5515834347434825e+00 6.1851579861173966e-01 1.9816526788183100e+00 1 2 -1
3250 1084 1 -8.4760000000000002e-01 2.8690975410986517e+00 1.4128486879600224e+00 2.4995525524191824e+00 1 2 -1
2248 750 1 -8.4760000000000002e-01 1.6678488405818139e+00 3.6101652984970523e+00 1.3775042366127270e+00 1 1 2
5992 1998 1 -8.4760000000000002e-01 1.2546188346912563e+01 6.8655482141669975e+00 1.4851416386460852e+00 0 0 1
2057 686 2 4.2380000000000001e-01 5.5704502343409397e+00 4.3884813576372563e+00 5.9674287813464879e+00 0 0 0
2056 686 1 -8.4760000000000002e-01 5.5996801935665665e+00 3.4277274314971908e+00 6.2432871354312223e+00 0 0 0
2058 686 2 4.2380000000000001e-01 4.7242225351713723e+00 2.9933367905475285e+00 6.0314396682528546e+00 0 0 0
6011 2004 2 4.2380000000000001e-01 1.3544835487458908e+01 1.5162445526378621e+01 1.4678946766310879e+01 -1 0 0
2225 742 2 4.2380000000000001e-01 1.9785006231231336e+01 1.4446258064006272e+00 1.9355260707853983e+01 -1 1 1
3251 1084 2 4.2380000000000001e-01 3.8200422035614419e+00 1.6085573395876267e+00 2.2599635254982235e+00 1 2 -1
955 319 1 -8.4760000000000002e-01 1.2327154799665902e+01 1.9854367879963814e+01 1.9557741035256957e+01 2 1 -1
612 204 2 4.2380000000000001e-01 1.9473821558140163e+01 1.4250133022427859e+01 2.2321014972934479e+00 0 0 1
5312 1771 2 4.2380000000000001e-01 6.1109860669371008e+00 1.9381969920684035e+00 2.2473992631092035e+00 2 -1 0
2396 799 2 4.2380000000000001e-01 6.3613353226108371e+00 3.0496937135816120e+00 7.7171659022771051e+00 1 -1 0
2395 799 1 -8.4760000000000002e-01 6.9177422844652909e+00 3.0592871580099770e+00 8.5480208854358004e+00 1 -1 0
5327 1776 2 4.2380000000000001e-01 8.1645653376845821e+00 3.8625644056385009e+00 4.6760680420775662e+00 0 0 -1
5326 1776 1 -8.4760000000000002e-01 8.0587424158224152e+00 2.9803128082337729e+00 5.1348001719388368e+00 0 0 -1
2397 799 2 4.2380000000000001e-01 7.0661786672499050e+00 2.1210703691446806e+00 8.8606173599840812e+00 1 -1 0
5328 1776 2 4.2380000000000001e-01 7.1973248634783848e+00 2.9698709009704443e+00 5.6425938064168717e+00 0 0 -1
136 46 1 -8.4760000000000002e-01 1.3269776138576615e+01 3.1594196705452071e+00 1.3619002450119895e+00 1 0 0
1979 660 2 4.2380000000000001e-01 7.9190206506402410e+00 5.2210530325718967e+00 6.1588898400884302e+00 2 0 0
2224 742 1 -8.4760000000000002e-01 1.9570249899011060e+01 5.1593162849466911e-01 1.9657597317478789e+01 -1 1 1
1030 344 1 -8.4760000000000002e-01 8.9008976667840543e+00 1.2429316935241355e+00 1.7028825277632956e-01 0 0 0
4547 1516 2 4.2380000000000001e-01 9.4800195080340881e+00 3.2246185053757368e+00 2.9496172036105266e+00 1 0 1
138 46 2 4.2380000000000001e-01 1.3562820245896996e+01 3.9761500130560030e+00 1.8589703902974499e+00 1 0 0
137 46 2 4.2380000000000001e-01 1.4019739712052829e+01 2.4984757091965775e+00 1.3352046682519432e+00 1 0 0
4546 1516 1 -8.4760000000000002e-01 9.3520378607802410e+00 4.2163529791998648e+00 2.9588514381581916e+00 1 0 1
4548 1516 2 4.2380000000000001e-01 9.6134359957954487e+00 4.5944438533709260e+00 2.0707512347194781e+00 1 0 1
5360 1787 2 4.2380000000000001e-01 1.9267240464440196e+01 1.4762204990371098e+01 1.4062275621364192e+01 1 0 0
1032 344 2 4.2380000000000001e-01 8.9572118516793982e+00 1.2366537091080179e+00 1.1686821969002688e+00 0 0 0
4698 1566 2 4.2380000000000001e-01 1.3510666193442047e+01 1.6499302766592831e-02 1.1955114278138838e+01 0 1 0
483 161 2 4.2380000000000001e-01 9.5721481840582996e+00 6.8632663046462588e+00 1.0210058631645127e+00 0 1 -1
481 161 1 -8.4760000000000002e-01 9.6068238213221022e+00 5.9266558742064310e+00 6.7234668627272010e-01 0 1 -1
482 161 2 4.2380000000000001e-01 1.0545120276213886e+01 5.7040496683031217e+00 4.0767942560220088e-01 0 1 -1
4622 1541 2 4.2380000000000001e-01 1.2106025191504129e+01 5.4237837033946565e+00 4.3805933335391227e+00 0 2 0
4621 1541 1 -8.4760000000000002e-01 1.2974670374117347e+01 5.4683533634705555e+00 3.8871646890381877e+00 0 2 0
3551 1184 2 4.2380000000000001e-01 1.0290557431570454e+01 4.3011596897487063e+00 5.0602955452673672e+00 -1 0 1
469 157 1 -8.4760000000000002e-01 1.5232406456929244e+01 6.2059961246913149e+00 1.4989477523163721e+00 0 1 0
5311 1771 1 -8.4760000000000002e-01 5.3159647913219024e+00 2.2252501997395164e+00 1.7130365301215691e+00 2 -1 0
5313 1771 2 4.2380000000000001e-01 5.5153088634667888e+00 2.1240694610457345e+00 7.3834326135142658e-01 2 -1 0
2677 893 1 -8.4760000000000002e-01 1.2548237893640902e+01 1.9799001947419477e+01 1.6204474825648514e+01 1 0 0
6048 2016 2 4.2380000000000001e-01 1.0044421694640070e+01 2.5427854096737641e+00 1.3573714637146872e-01 0 -1 2
3592 1198 1 -8.4760000000000002e-01 6.5951894011334511e-01 1.0785773643945520e+01 1.4277248109407106e+01 0 0 -1
987 329 2 4.2380000000000001e-01 9.3509942301819358e+00 1.7164788423935700e+01 1.9031765306562836e+01 1 0 0
253 85 1 -8.4760000000000002e-01 1.9115562088487916e+01 6.5361312624426224e+00 5.8921332432541873e-01 -1 2 0
2628 876 2 4.2380000000000001e-01 1.9742890142206054e+01 2.5281965120419803e+00 5.9074280174547322e+00 2 2 1
1184 395 2 4.2380000000000001e-01 1.3058277019899839e+01 1.5938371203532185e+00 4.0381580680167133e+00 1 0 0
833 278 2 4.2380000000000001e-01 1.5927105239400635e+01 1.0196051207972243e+00 1.9124392338443457e+00 0 -1 0
3849 1283 2 4.2380000000000001e-01 1.3588631067567830e+01 3.8090203064303618e+00 4.2844610120787294e+00 0 0 0
3433 1145 1 -8.4760000000000002e-01 1.6640988008141584e+01 3.8582584772765909e+00 4.0090327929379033e+00 0 1 1
3847 1283 1 -8.4760000000000002e-01 1.4060966552706981e+01 2.9390901708834622e+00 4.4263110146988751e+00 0 0 0
3848 1283 2 4.2380000000000001e-01 1.5012832222059989e+01 3.0247766351874099e+00 4.1320150592614819e+00 0 0 0
5118 1706 2 4.2380000000000001e-01 1.4669696529207418e+01 1.1524034766326309e+01 8.8840440989548830e-01 0 -2 0
6013 2005 1 -8.4760000000000002e-01 2.0000695958053061e+01 1.4981127182635898e+01 1.9484785290088929e+01 1 0 0
1185 395 2 4.2380000000000001e-01 1.2486489082417021e+01 1.9946494886850030e-01 4.6669756052581164e+00 1 0 0
1183 395 1 -8.4760000000000002e-01 1.2436222542815297e+01 8.2527516462523376e-01 3.8886214004872914e+00 1 0 0
3234 1078 2 4.2380000000000001e-01 1.6322547403523024e+00 1.1252462560368977e+01 2.5094768957199060e-01 0 0 0
2940 980 2 4.2380000000000001e-01 1.8824683089602040e+01 6.0385843067058191e+00 2.3497143147987294e+00 0 1 -1
3434 1145 2 4.2380000000000001e-01 1.7168401004657245e+01 4.6417185034012105e+00 3.6803593269744685e+00 0 1 1
3435 1145 2 4.2380000000000001e-01 1.6935034718238260e+01 3.6235669955752012e+00 4.9355623545719043e+00 0 1 1
3916 1306 1 -8.4760000000000002e-01 2.1960399688620589e+00 4.3272517374584378e+00 1.2494321094821800e+01 1 1 1
3906 1302 2 4.2380000000000001e-01 4.3206295578960221e+00 1.7018395121306668e+01 1.9374296718320597e+01 1 0 1
832 278 1 -8.4760000000000002e-01 1.5722600899099517e+01 1.9763753480609965e+00 1.7056312051045412e+00 0 -1 0
2003 668 2 4.2380000000000001e-01 1.9618504976782113e+01 1.7843863386093172e+01 1.0897728737120268e+01 0 -1 -1
834 278 2 4.2380000000000001e-01 1.6192050249836861e+01 2.5669660123948339e+00 2.3620007742891724e+00 0 -1 0
2554 852 1 -8.4760000000000002e-01 8.1658524525425094e+00 1.7801180352046558e+01 2.3119770757351124e-01 0 1 0
3918 1306 2 4.2380000000000001e-01 2.9801586078209303e+00 4.9049182055786655e+00 1.2721172294383916e+01 1 1 1
2405 802 2 4.2380000000000001e-01 1.8683814214244304e+01 3.8951676715898181e-01 3.0353735987090995e+00 -1 0 0
2646 882 2 4.2380000000000001e-01 8.1431901666043380e+00 7.1361690215869011e-01 1.9133396592411252e+01 1 -1 1
6107 2036 2 4.2380000000000001e-01 1.2665893564852734e+01 1.9686636297281197e+01 7.8059869991374145e+00 1 1 1
3447 1149 2 4.2380000000000001e-01 1.8766353695920753e+01 5.4750098863507306e+00 1.2947740568799389e+01 -1 -1 0
3651 1217 2 4.2380000000000001e-01 1.1592049107475573e+00 1.0976140900952187e+01 1.2428130303064520e+01 1 -1 -1
5910 1970 2 4.2380000000000001e-01 2.0043288841896054e+01 8.5993595830946146e-01 1.8794504227605948e+00 0 2 0
6046 2016 1 -8.4760000000000002e-01 1.0692230428198510e+01 3.2786457710304227e+00 3.3285621560583567e-01 0 -1 2
472 158 1 -8.4760000000000002e-01 6.2626702520222044e-01 1.4240682626542217e+01 1.6493359923187821e+01 1 1 0
357 119 2 4.2380000000000001e-01 1.6475114663494047e+01 7.0617486499539583e-02 1.0879014571670352e+01 1 1 -1
4084 1362 1 -8.4760000000000002e-01 1.9299676678778091e-01 1.0839181068686128e+00 5.8487003511641618e+00 0 1 -1
6138 2046 2 4.2380000000000001e-01 2.4707074528673671e+00 8.0156262665057980e+00 4.3096830734448908e+00 1 1 0
6137 2046 2 4.2380000000000001e-01 1.4801057788773708e+00 8.8194611319491223e+00 5.3290885805722414e+00 1 1 0
860 287 2 4.2380000000000001e-01 2.7869644843609085e+00 1.1550541869567015e+01 2.3680590130558441e+00 1 0 1
6083 2028 2 4.2380000000000001e-01 3.3403092835958423e+00 1.0050649418445431e+01 5.6235666859856197e+00 0 0 2
6082 2028 1 -8.4760000000000002e-01 3.9163963428491044e+00 1.0783721227157972e+01 5.2620003888414564e+00 0 0 2
6084 2028 2 4.2380000000000001e-01 3.4152162737794947e+00 1.1648442243655021e+01 5.2948204614840950e+00 0 0 2
6136 2046 1 -8.4760000000000002e-01 1.9993609893643487e+00 8.8816118739906624e+00 4.4767317838591740e+00 1 1 0
1540 514 1 -8.4760000000000002e-01 1.8320768097629259e+01 1.1652988082104976e+01 7.3736994704675785e-01 -1 0 -2
861 287 2 4.2380000000000001e-01 1.8172454134560185e+00 1.0355137172924653e+01 2.9132922070408078e+00 1 0 1
859 287 1 -8.4760000000000002e-01 2.2262167316855423e+00 1.0767424829936672e+01 2.0991905471271908e+00 1 0 1
5805 1935 2 4.2380000000000001e-01 1.7533424996189182e+00 1.2837325042087215e+01 6.5064184047199696e+00 1 0 1
5803 1935 1 -8.4760000000000002e-01 2.5446788258368271e+00 1.2888615686523368e+01 5.8971922391368166e+00 1 0 1
2059 687 1 -8.4760000000000002e-01 1.8764989734505630e+01 2.4097824027235819e+00 8.6805716986296986e+00 0 0 0
6028 2010 1 -8.4760000000000002e-01 1.3390128550237776e+01 1.9479846506843938e+01 1.0701702375048828e+01 0 0 -1
4871 1624 2 4.2380000000000001e-01 5.1860030018305894e+00 1.0096674430400212e+01 4.3684953800098008e+00 0 1 0
3594 1198 2 4.2380000000000001e-01 1.4446861219509939e+00 1.1148727125538732e+01 1.4779023560294926e+01 0 0 -1
2128 710 1 -8.4760000000000002e-01 3.4945121645451946e+00 1.3022284314465761e+01 2.6368507669294496e+00 0 1 0
5804 1935 2 4.2380000000000001e-01 2.9543091682532636e+00 1.3798787325959417e+01 5.9587884357420400e+00 1 0 1
2129 710 2 4.2380000000000001e-01 4.1991617124034031e+00 1.3564517805135202e+01 3.0945133619059200e+00 0 1 0
809 270 2 4.2380000000000001e-01 6.4799166557566847e+00 1.3112300940077368e+01 3.5043297042271697e+00 0 -1 2
3766 1256 1 -8.4760000000000002e-01 4.9634351323208659e+00 6.0875852671258235e+00 5.7467236478205868e+00 0 0 -1
3767 1256 2 4.2380000000000001e-01 5.9290339668688690e+00 6.1526800559697667e+00 5.4949600447556151e+00 0 0 -1
6522 2174 2 4.2380000000000001e-01 3.1397302341578426e+00 9.6300411470949143e+00 9.1356532303209970e-01 0 -1 1
3189 1063 2 4.2380000000000001e-01 1.9611895128857462e+01 1.3316971094185883e+01 5.4774521473880435e+00 0 1 1
1978 660 1 -8.4760000000000002e-01 7.7115479973329144e+00 5.8973882346457103e+00 5.4521176364278050e+00 2 0 0
1980 660 2 4.2380000000000001e-01 8.3600874684995841e+00 6.6558867101910764e+00 5.5159752542479961e+00 2 0 0
4178 1393 2 4.2380000000000001e-01 7.1362577662398321e+00 6.2589072154676639e+00 3.6948066399519095e+00 2 2 0
4179 1393 2 4.2380000000000001e-01 7.9959104039907070e+00 5.9638965456052775e+00 2.3381221092264424e+00 2 2 0
2600 867 2 4.2380000000000001e-01 8.2297634167088507e+00 1.4231803857636994e+01 6.7929731727704479e-01 1 1 -1
6067 2023 1 -8.4760000000000002e-01 5.8580566886245915e+00 8.2736793319760036e+00 1.3163746725503351e+00 0 0 1
4177 1393 1 -8.4760000000000002e-01 7.1242464226043207e+00 6.2990899239692473e+00 2.6956844859408156e+00 2 2 0
4870 1624 1 -8.4760000000000002e-01 6.1072417322993413e+00 1.0032163496576464e+01 3.9848834712979602e+00 0 1 0
5020 1674 1 -8.4760000000000002e-01 8.6862036848529680e+00 8.4258146590648728e+00 5.8705947795097817e+00 1 0 0
5021 1674 2 4.2380000000000001e-01 8.9583604204178027e+00 9.3166945477823528e+00 5.5069126655345668e+00 1 0 0
3585 1195 2 4.2380000000000001e-01 1.0980599722113567e+01 8.8308445756762364e+00 4.9891664916896525e+00 0 0 0
4623 1541 2 4.2380000000000001e-01 1.2925679046753546e+01 6.1836193993675810e+00 3.1900286095434400e+00 0 2 0
3583 1195 1 -8.4760000000000002e-01 1.1816542268019036e+01 8.2879233149397624e+00 5.0694138627539367e+00 0 0 0
3584 1195 2 4.2380000000000001e-01 1.2609283811665872e+01 8.8972257708062088e+00 5.0871991939707355e+00 0 0 0
1616 539 2 4.2380000000000001e-01 1.0746583933425807e+01 9.1508571970463937e+00 7.8434108048132922e-01 0 -1 0
1615 539 1 -8.4760000000000002e-01 9.9365785180276340e+00 8.7115708778485299e+00 1.1728257099734050e+00 0 -1 0
1617 539 2 4.2380000000000001e-01 1.0045356560830152e+01 8.6282475651441946e+00 2.1633938708563352e+00 0 -1 0
1093 365 1 -8.4760000000000002e-01 1.0121896659665005e+01 1.0626751945277286e+01 4.7601709967773536e+00 -1 0 1
1094 365 2 4.2380000000000001e-01 9.9098658903421395e+00 1.1224000184004060e+01 3.9866478387878579e+00 -1 0 1
1095 365 2 4.2380000000000001e-01 1.0743640002003270e+01 1.1098822513598975e+01 5.3851391180878920e+00 -1 0 1
4872 1624 2 4.2380000000000001e-01 6.6240568396092980e+00 9.3303497608805817e+00 4.4751486169905128e+00 0 1 0
6262 2088 1 -8.4760000000000002e-01 7.8509606230962152e+00 1.2151959151341593e+01 3.4699057903216364e+00 1 -1 0
2644 882 1 -8.4760000000000002e-01 8.7652052531425539e+00 4.0246281878161222e-01 1.8414869306183345e+01 1 -1 1
5417 1806 2 4.2380000000000001e-01 3.9143547019720386e+00 1.0949616838120244e+01 1.9914328540509086e+01 1 1 1
2601 867 2 4.2380000000000001e-01 8.2019056825631971e+00 1.3560231404631732e+01 2.1675321932824327e+00 1 1 -1
6263 2088 2 4.2380000000000001e-01 7.2938177277604250e+00 1.1358046503016975e+01 3.7134202094763422e+00 1 -1 0
6264 2088 2 4.2380000000000001e-01 8.3329647254383357e+00 1.2482433445679801e+01 4.2813627343770202e+00 1 -1 0
6275 2092 2 4.2380000000000001e-01 1.2515742246048390e+01 1.1123435946075151e+01 1.8439005374809176e+00 0 -2 0
6069 2023 2 4.2380000000000001e-01 6.4732985579274773e+00 8.9766989605324952e+00 9.5966512900856005e-01 0 0 1
6068 2023 2 4.2380000000000001e-01 6.3821311194577568e+00 7.6146460882377625e+00 1.8558393979719221e+00 0 0 1
1814 605 2 4.2380000000000001e-01 1.3634349189170116e+00 1.3245880249429881e+01 1.3801272456554941e+01 1 0 2
215 72 2 4.2380000000000001e-01 1.3204813472956705e+01 1.3384399470697652e+01 6.6129621700631054e+00 2 0 0
1286 429 2 4.2380000000000001e-01 9.9434858100769823e+00 1.3881508549385821e+00 1.7077500257138738e+01 -1 1 0
2002 668 1 -8.4760000000000002e-01 1.9989622119424713e+01 1.7919581397121174e+01 9.9722345614635746e+00 0 -1 -1
6228 2076 2 4.2380000000000001e-01 7.3167763262214436e-01 4.3769162463536011e+00 5.1667067941347931e+00 1 -1 0
1786 596 1 -8.4760000000000002e-01 1.4001728695246703e+01 9.7870017918307095e+00 5.5182371500375815e+00 0 -2 0
5377 1793 1 -8.4760000000000002e-01 1.6020587351571244e+01 8.6086734551195487e+00 2.9769312495755393e+00 -1 1 1
5379 1793 2 4.2380000000000001e-01 1.6999473394034077e+01 8.6066600760633563e+00 3.1813359212533525e+00 -1 1 1
471 157 2 4.2380000000000001e-01 1.5591974908316582e+01 6.9699302102102942e+00 2.0347797297219583e+00 0 1 0
6260 2087 2 4.2380000000000001e-01 1.4938250712784132e+01 9.7859542186280493e+00 2.5648857212051905e+00 0 0 0
3546 1182 2 4.2380000000000001e-01 1.9175215619698815e+01 1.0362934757911260e+01 2.1293564424942755e+00 0 0 0
2938 980 1 -8.4760000000000002e-01 1.8604554351181420e+01 5.7975427522795311e+00 3.2949353992867820e+00 0 1 -1
336 112 2 4.2380000000000001e-01 1.9587561495425074e+01 1.6440782159655679e+01 2.0771020919197642e+00 0 1 1
6261 2087 2 4.2380000000000001e-01 1.4125368103101829e+01 1.0941588983141877e+01 3.3836391978099405e+00 0 0 0
6259 2087 1 -8.4760000000000002e-01 1.4228535862658550e+01 1.0487333743545820e+01 2.4987612821882288e+00 0 0 0
2939 980 2 4.2380000000000001e-01 1.8603178907695174e+01 6.6239612159276335e+00 3.8579904465779955e+00 0 1 -1
5378 1793 2 4.2380000000000001e-01 1.5530670833732486e+01 8.1036315036881224e+00 3.6875065686173056e+00 -1 1 1
2995 999 1 -8.4760000000000002e-01 2.7426495457076165e+00 1.9552954871291419e+01 1.9109492369202034e+01 2 -1 0
1315 439 1 -8.4760000000000002e-01 1.4783195437606810e+01 7.0761933144566065e+00 5.1889912951611841e+00 0 0 0
5649 1883 2 4.2380000000000001e-01 1.9121993191141787e+01 8.8430740531486762e+00 4.0529269721665049e+00 1 2 1
1787 596 2 4.2380000000000001e-01 1.4186037324912446e+01 1.0687621358115038e+01 5.1246433796728983e+00 0 -2 0
5336 1779 2 4.2380000000000001e-01 1.7424939400165012e+01 1.5881265785804183e+01 1.8947105060758371e+01 1 0 0
2378 793 2 4.2380000000000001e-01 1.5400268661284256e+01 1.2984935951494316e+01 4.2997221109999284e+00 -1 0 1
1481 494 2 4.2380000000000001e-01 8.5371505600207804e+00 9.5386954975220561e+00 7.2529988362376252e-01 1 0 1
4987 1663 1 -8.4760000000000002e-01 1.6083126534459186e+01 1.4571776473113582e+01 1.8383485906808203e+00 2 0 1
4989 1663 2 4.2380000000000001e-01 1.5847979833342157e+01 1.4842345170963331e+01 2.7718900261022568e+00 2 0 1
2377 793 1 -8.4760000000000002e-01 1.5136832654160006e+01 1.2058942389427335e+01 4.5701617051296495e+00 -1 0 1
2379 793 2 4.2380000000000001e-01 1.5935637508940820e+01 1.1576827902213875e+01 4.9299910937871223e+00 -1 0 1
3444 1148 2 4.2380000000000001e-01 1.6406361471757229e+01 5.9719073925543222e+00 7.8487063550130935e+00 1 0 1
3442 1148 1 -8.4760000000000002e-01 1.5742854346829017e+01 5.6004551809456222e+00 7.1992583481239132e+00 1 0 1
5648 1883 2 4.2380000000000001e-01 1.9293389902161913e+01 7.9711039604163858e+00 5.4229335452000536e+00 1 2 1
1316 439 2 4.2380000000000001e-01 1.4060612869247185e+01 6.6170708513523886e+00 4.6721894360879466e+00 0 0 0
3443 1148 2 4.2380000000000001e-01 1.5296584395519519e+01 6.3513795775910271e+00 6.7124737276034434e+00 1 0 1
1317 439 2 4.2380000000000001e-01 1.4487595648012018e+01 8.0019401407520832e+00 5.4248191015609324e+00 0 0 0
5647 1883 1 -8.4760000000000002e-01 1.8678894438750337e+01 8.1873493167596756e+00 4.6642281957741734e+00 1 2 1
1788 596 2 4.2380000000000001e-01 1.4118215403813714e+01 9.8267734832729143e+00 6.5106331936943871e+00 0 -2 0
6191 2064 2 4.2380000000000001e-01 1.7384861165413348e+01 1.2241435846979986e+01 1.8542891698884013e+01 0 0 3
6521 2174 2 4.2380000000000001e-01 4.5783518558443195e+00 8.8967157906724577e+00 6.7019442407012364e-01 0 -1 1
3258 1086 2 4.2380000000000001e-01 1.3954257610314797e+00 1.1645208903535126e+01 1.9240718387983321e+01 1 -1 -2
810 270 2 4.2380000000000001e-01 6.0118457882491212e+00 1.4209913731793987e+01 4.6191317621035219e+00 0 -1 2
1426 476 1 -8.4760000000000002e-01 1.4298992767331702e+00 1.8557882872693909e+01 4.6361987039059693e+00 1 0 0
2130 710 2 4.2380000000000001e-01 2.6447111963580086e+00 1.3547687919982643e+01 2.5944841376155821e+00 0 1 0
3225 1075 2 4.2380000000000001e-01 2.0835094565016790e+00 1.7161633253046261e+01 3.9099419217705860e+00 1 0 1
4409 1470 2 4.2380000000000001e-01 1.9524058875639984e+01 9.7169254563026790e+00 1.6417611590975604e+01 2 -1 2
3638 1213 2 4.2380000000000001e-01 4.5846549501725651e+00 1.5415813746490588e+01 6.3665892221056328e+00 -1 -2 0
5783 1928 2 4.2380000000000001e-01 5.2117317879880665e-01 1.4766967887625745e+01 2.4474636307379045e+00 2 0 0
3637 1213 1 -8.4760000000000002e-01 3.6512717413104245e+00 1.5325298407049123e+01 6.0193044823654080e+00 -1 -2 0
3639 1213 2 4.2380000000000001e-01 3.5557652025975872e+00 1.5856863135782641e+01 5.1776866952839482e+00 -1 -2 0
808 270 1 -8.4760000000000002e-01 5.9483525280753948e+00 1.3945481357315982e+01 3.6568179092081441e+00 0 -1 2
5784 1928 2 4.2380000000000001e-01 1.9689143598128300e+00 1.5494070954805323e+01 2.6523886556285823e+00 2 0 0
5782 1928 1 -8.4760000000000002e-01 1.4880750145186863e+00 1.4747188589568355e+01 2.1930807796292724e+00 2 0 0
3223 1075 1 -8.4760000000000002e-01 2.8485526104338232e+00 1.6567116999087851e+01 3.6624302897847514e+00 1 0 1
3224 1075 2 4.2380000000000001e-01 3.6663652629366892e+00 1.7122156951529888e+01 3.5103965561249222e+00 1 0 1
2720 907 2 4.2380000000000001e-01 3.6650258187445202e+00 1.8118473298188576e+01 1.0338003325610901e+00 0 -1 0
5106 1702 2 4.2380000000000001e-01 1.9708734742678832e+01 8.2437620708993240e+00 1.2682282655125201e+01 1 -1 0
1427 476 2 4.2380000000000001e-01 1.4740142536717931e+00 1.8138505735038120e+01 5.5429391919053259e+00 1 0 0
1090 364 1 -8.4760000000000002e-01 1.7746871422295807e+00 1.7927476554654689e+01 7.1859298387728039e+00 1 -1 0
2719 907 1 -8.4760000000000002e-01 3.7433256264449977e+00 1.7140188662803002e+01 8.4188750455362615e-01 0 -1 0
837 279 2 4.2380000000000001e-01 1.0685163678448509e+01 8.0757213314137366e-01 6.5867477512014405e+00 0 2 0
2304 768 2 4.2380000000000001e-01 1.9054738326886262e+01 1.0678029794792607e+01 1.2672693798036311e+01 -1 1 0
4787 1596 2 4.2380000000000001e-01 1.9685420949458230e+01 1.2064684863554845e+01 1.3565888994166857e+01 1 -1 0
6350 2117 2 4.2380000000000001e-01 5.6426979978879350e+00 1.7170967596149129e+01 3.1214906181656552e+00 0 0 -1
6351 2117 2 4.2380000000000001e-01 6.4383493011863147e+00 1.7779709603943097e+01 4.4110641638065582e+00 0 0 -1
5102 1701 2 4.2380000000000001e-01 4.4803031018002439e+00 1.9126548172794774e+01 3.8913059672119372e+00 0 1 -2
2721 907 2 4.2380000000000001e-01 4.6559210490391241e+00 1.6822118698827609e+01 1.0988047305087962e+00 0 -1 0
6388 2130 1 -8.4760000000000002e-01 1.1293196710208748e+00 1.7190902421127969e+01 4.9002181775727643e-01 -1 0 1
6190 2064 1 -8.4760000000000002e-01 1.7906332423536391e+01 1.1438406359194282e+01 1.8831357856112771e+01 0 0 3
6349 2117 1 -8.4760000000000002e-01 5.5602021094696514e+00 1.7748487924909075e+01 3.9336913018224049e+00 0 0 -1
1237 413 1 -8.4760000000000002e-01 6.3709442880399552e+00 1.5022885717834733e+01 6.2478794892004572e+00 0 -1 0
6390 2130 2 4.2380000000000001e-01 2.0178517008781585e+00 1.6737042779838440e+01 5.5728791695638191e-01 -1 0 1
1215 405 2 4.2380000000000001e-01 1.0986304615626523e+00 4.3878564430353428e+00 2.6653938664436474e+00 1 0 -2
645 215 2 4.2380000000000001e-01 1.6755238578443475e+01 6.2361884619667429e-01 5.5710807860198992e+00 0 1 0
5489 1830 2 4.2380000000000001e-01 1.1900944997504990e+01 1.6690574603700068e+01 1.4693221293142448e+01 1 -1 1
1658 553 2 4.2380000000000001e-01 3.7596495702065119e-01 8.8034946397528522e+00 3.7951801370999729e+00 1 0 1
6274 2092 1 -8.4760000000000002e-01 1.1664920240608716e+01 1.1573996126218745e+01 1.5735265054940291e+00 0 -2 0
75 25 2 4.2380000000000001e-01 5.8245954485206832e+00 1.5181706358650255e+01 2.4628986744504844e+00 0 0 1
74 25 2 4.2380000000000001e-01 6.8244682869883171e+00 1.6103915622947895e+01 1.5593440185184910e+00 0 0 1
73 25 1 -8.4760000000000002e-01 5.8747866232078669e+00 1.5960731706311188e+01 1.8379178053879708e+00 0 0 1
224 75 2 4.2380000000000001e-01 1.1365880555004386e+01 1.3006882680659192e+01 2.5754611011985218e+00 0 0 1
223 75 1 -8.4760000000000002e-01 1.1284679160382463e+01 1.3757754565479615e+01 3.2309028363744705e+00 0 0 1
225 75 2 4.2380000000000001e-01 1.0318276977763494e+01 1.3967705205050873e+01 3.3791875692066187e+00 0 0 1
4078 1360 1 -8.4760000000000002e-01 1.1017218267434174e+01 1.7850684335263061e+01 3.2955094493142485e+00 -1 0 1
4934 1645 2 4.2380000000000001e-01 9.0102536131970705e+00 1.6829118202615767e+01 6.4225303145590420e+00 2 0 -1
1238 413 2 4.2380000000000001e-01 6.6766386485355431e+00 1.4442849981938902e+01 7.0029365414047264e+00 0 -1 0
4933 1645 1 -8.4760000000000002e-01 8.1028177421190115e+00 1.7052038052578276e+01 6.0663451399043602e+00 2 0 -1
4080 1360 2 4.2380000000000001e-01 1.0545402459058925e+01 1.7316689578787638e+01 2.5939105026180944e+00 -1 0 1
5237 1746 2 4.2380000000000001e-01 1.2664024544449523e+01 1.6622156051421516e+01 4.5034692343913836e+00 0 1 0
5236 1746 1 -8.4760000000000002e-01 1.2558478036739137e+01 1.5733679095509553e+01 4.9500910709230483e+00 0 1 0
5238 1746 2 4.2380000000000001e-01 1.2192518138073625e+01 1.5072690980293332e+01 4.2949770610041771e+00 0 1 0
4935 1645 2 4.2380000000000001e-01 8.1626210101627716e+00 1.7864861502214580e+01 5.4869121386629844e+00 2 0 -1
4079 1360 2 4.2380000000000001e-01 1.1553544157159864e+01 1.8573511341533909e+01 2.8597600105190457e+00 -1 0 1
6276 2092 2 4.2380000000000001e-01 1.1480300606162638e+01 1.1386229135402152e+01 6.0881821249554779e-01 0 -2 0
1911 637 2 4.2380000000000001e-01 2.8676703431733658e-01 9.0709911595705801e+00 1.4078511360448584e+01 0 0 1
2599 867 1 -8.4760000000000002e-01 8.5148093387397523e+00 1.4344103873434763e+01 1.6312124968328798e+00 1 1 -1
3087 1029 2 4.2380000000000001e-01 9.6521967784787552e+00 1.8690423489148781e+01 4.0212918722413278e+00 1 0 0
1813 605 1 -8.4760000000000002e-01 6.5686096620708312e-01 1.3952514687255208e+01 1.3763565989310441e+01 1 0 2
4203 1401 2 4.2380000000000001e-01 9.7389099758446918e+00 1.5563124664221803e+01 1.5435194155379957e+00 0 0 2
613 205 1 -8.4760000000000002e-01 1.7435694893987083e-01 2.0993011361019458e+00 1.0447314593226913e+01 1 0 1
1239 413 2 4.2380000000000001e-01 7.0290505424533380e+00 1.5762775502367116e+01 6.1083810225094863e+00 0 -1 0
214 72 1 -8.4760000000000002e-01 1.3620003508991333e+01 1.4194751391196549e+01 7.0264215545872810e+00 2 0 0
216 72 2 4.2380000000000001e-01 1.3207924590455942e+01 1.5017237207918525e+01 6.6343619748338662e+00 2 0 0
3085 1029 1 -8.4760000000000002e-01 8.8317555780248398e+00 1.9121772428010988e+01 4.3965490498495567e+00 1 0 0
4281 1427 2 4.2380000000000001e-01 1.8065937930624177e+01 7.6449189729403386e+00 7.8078219827912374e+00 -2 0 1
952 318 1 -8.4760000000000002e-01 1.6462184375318113e+01 1.8613851022201942e+01 1.4318131864881488e+01 0 0 0
5430 1810 2 4.2380000000000001e-01 1.6945596625700276e+01 1.9823508442683487e+01 5.4239885025634020e+00 1 -1 1
3825 1275 2 4.2380000000000001e-01 1.7207637243984230e+01 1.9845158335643092e+01 7.9784019504365400e-01 1 -1 0
110 37 2 4.2380000000000001e-01 1.6452391459097271e-02 2.0054220151386044e+01 1.1693454000685498e-01 0 -1 1
4382 1461 2 4.2380000000000001e-01 5.3790785053621235e+00 4.4650991683291599e+00 1.9812465419889090e+01 2 1 -1
2400 800 2 4.2380000000000001e-01 1.2431943231997201e+01 1.6174762758925514e+01 1.8850070033653612e+00 1 -1 0
5273 1758 2 4.2380000000000001e-01 1.5420223483341676e+01 1.8594016636221962e+01 2.7026867822937857e+00 1 -1 0
355 119 1 -8.4760000000000002e-01 1.6132147029885676e+01 4.6775230180495803e-01 1.0027746028149796e+01 1 1 -1
5274 1758 2 4.2380000000000001e-01 1.4620904523492401e+01 1.7171547506486149e+01 2.7682591375125827e+00 1 -1 0
5272 1758 1 -8.4760000000000002e-01 1.5254169849270811e+01 1.7775343723545184e+01 3.2524170150314480e+00 1 -1 0
2399 800 2 4.2380000000000001e-01 1.3708256667947419e+01 1.5156278457170526e+01 1.8665542072597965e+00 1 -1 0
2398 800 1 -8.4760000000000002e-01 1.3396402699945803e+01 1.6069865803634901e+01 2.1275246457693386e+00 1 -1 0
2780 927 2 4.2380000000000001e-01 2.0127489849046484e+01 1.8530523926327966e+01 2.4771854217480263e+00 2 1 1
2779 927 1 -8.4760000000000002e-01 1.9177119433846183e+01 1.8497887469615431e+01 2.7865968667935830e+00 2 1 1
4435 1479 1 -8.4760000000000002e-01 1.5589295643808898e+01 1.5079043578594826e+01 4.3731952687423608e+00 -1 -1 1