ITEM: TIMESTEP
0
ITEM: NUMBER OF ATOMS
5439
ITEM: BOX BOUNDS pp pp pp
0.000 5.46664
0.000 5.46664
0.000 10.93328
ITEM: ATOMS id type xu yu zu
 1 1 2.125 5.389 6.294
 2 1 4.126 0.311 4.5
 3 1 3.866 5.49 2.889
 4 1 3.961 5.02 6.746
 5 1 2.585 1.988 7.575
 6 1 4.02 1.433 4.146
 7 1 5.276 1.542 6.896
 8 1 3.139 1.532 7.927
 9 1 0.706 4.267 3.116
 10 1 0.986 5.345 3.396
 11 1 4.81 2.399 4.268
 12 1 4.688 4.382 6.287
 13 1 2.752 2.647 3.5
 14 1 2.719 1.994 6.985
 15 1 3.747 4.355 6.021
 16 1 4.698 1.332 4.252
 17 1 1.548 3.42 3.933
 18 1 3.2 2.42 7.637
 19 1 1.093 3.652 7.077
 20 1 3.244 3.138 4.204
 21 1 1.303 4.668 7.606
 22 1 1.308 0.788 7.74
 23 1 3.053 5.3 6.6
 24 1 4.067 0.453 6.653
 25 1 2.875 4.651 8.036
 26 1 1.595 0.78 5.08
 27 1 0.397 3.163 6.129
 28 1 2.26 2.392 4.482
 29 1 3.072 3.081 7.865
 30 1 0.768 2.664 4.067
 31 1 4.358 5.204 6.783
 32 1 1.186 2.894 4.849
 33 1 1.973 3.918 7.143
 34 1 4.978 4.601 6.625
 35 1 0.07 2.721 5.276
 36 1 5.245 0.199 6.651
 37 1 5.051 0.083 2.977
 38 1 4.653 4.703 4.915
 39 1 0.692 2.778 5.822
 40 1 3.405 2.357 4.352
 41 1 5.252 0.565 7.797
 42 1 4.805 0.01 6.087
 43 1 5.297 1.075 4.723
 44 1 2.153 4.44 7.673
 45 1 3.977 2.631 5.806
 46 1 0.122 0.656 6.295
 47 1 2.144 0.272 6.956
 48 1 2.842 0.97 4.824
 49 1 0.668 3.955 6.333
 50 1 0.238 0.468 2.862
 51 1 3.784 1.421 5.259
 52 1 0.788 3.759 2.752
 53 1 3.835 2.454 6.099
 54 1 0.913 5.435 4.341
 55 1 1.754 1.452 8.106
 56 1 4.018 0.358 3.68
 57 1 1.417 2.028 3.2
 58 1 4.708 4.832 4.217
 59 1 1.86 3.535 4.091
 60 1 5.077 1.566 5.079
 61 1 1.088 1.734 4.837
 62 1 5.322 2.998 2.996
 63 1 5.023 4.592 7.04
 64 1 2.481 2.774 5.515
 65 1 2.12 3.956 3.44
 66 1 2.413 0.647 3.128
 67 1 1.848 5.318 5.455
 68 1 4.448 3.008 5.106
 69 1 1.041 4.959 5.498
 70 1 1.95 2.557 4.121
 71 1 4.739 1.174 4.507
 72 1 0.846 3.597 2.954
 73 1 4.251 2.674 7.714
 74 1 2.815 4.071 6.969
 75 1 1.265 4.933 7.655
 76 1 2.191 1.657 8.204
 77 1 2.121 0.13 8
 78 1 0.814 2.38 6.91
 79 1 1.418 4.788 6.844
 80 1 4.431 1.811 6.34
 81 1 4.701 2.646 3.867
 82 1 3.575 1.904 5.855
 83 1 0.433 2.271 6.631
 84 1 1.251 3.583 5.563
 85 1 2.161 3.866 5.903
 86 1 3.788 2.088 5.336
 87 1 4.173 2.44 3.38
 88 1 0.207 0.467 3.136
 89 1 0.347 0.833 6.534
 90 1 0.274 3.284 3.986
 91 1 4.476 3.938 7.404
 92 1 4.158 0.94 2.793
 93 1 5.465 2.826 6.584
 94 1 3.335 3.488 7.527
 95 1 0.474 3.632 6.063
 96 1 1.65 0.594 5.541
 97 1 2.7 4.52 2.738
 98 1 1.233 3.301 5.857
 99 1 3.096 1.835 7.183
 100 1 5.257 4.038 7.388
 101 1 1.697 3.781 7.728
 102 1 4.638 2.274 3.5
 103 1 3.884 4.095 3.679
 104 1 0.682 5.179 4.049
 105 1 3.014 4.345 5.621
 106 1 5.299 1.618 4.598
 107 1 4.714 2.458 4.79
 108 1 0.108 3.865 7.992
 109 1 2.138 3.245 7.066
 110 1 4.871 2.734 3.525
 111 1 1.934 4.471 4.455
 112 1 1.078 3.073 8.117
 113 1 2.319 0.355 4.887
 114 1 4.588 0.188 2.867
 115 1 0.274 3.615 4.708
 116 1 0.155 3.212 3.087
 117 1 0.122 0.149 6.015
 118 1 2.462 5.427 2.978
 119 1 1.743 1.135 6.181
 120 1 1.988 2.582 5.424
 121 1 4.536 3.288 8.076
 122 1 0.552 5.456 7.619
 123 1 5.031 4.369 6.207
 124 1 4.225 3.253 2.817
 125 1 4.026 1.508 6.177
 126 1 3.476 3.087 3.59
 127 1 1.576 0.931 3.227
 128 1 4.722 2.608 5.722
 129 1 5.392 5.265 5.207
 130 1 2.522 0.001 7.777
 131 1 1.586 5.111 6.615
 132 1 0.784 3.764 6.508
 133 1 2.633 3.809 5.871
 134 1 3.414 0.672 2.814
 135 1 4.643 3.805 5.05
 136 1 2.983 0.313 6.294
 137 1 2.609 5.351 3.655
 138 1 0.785 2.856 5.604
 139 1 2.229 0.208 3.365
 140 1 0.832 3.186 4.395
 141 1 1.586 2.797 4.439
 142 1 4.573 1.812 4.084
 143 1 4.56 1.085 7.675
 144 1 3.461 5.126 2.945
 145 1 0.034 3.368 5.275
 146 1 1.854 0.425 6.835
 147 1 0.138 2.543 3.863
 148 1 0.751 4.839 6.842
 149 1 2.614 3.693 7.62
 150 1 2.062 3.438 3.155
 151 1 5.447 0.835 7.13
 152 1 0.814 0.655 6.048
 153 1 1.347 0.309 6.913
 154 1 4.69 0.697 6.462
 155 1 3.603 0.443 7.642
 156 1 1.928 3.43 4.651
 157 1 5.162 3.813 5.858
 158 1 0.944 4.768 7.11
 159 1 1.08 3.058 7.264
 160 1 3.356 4.521 3.541
 161 1 3.025 2.106 3.043
 162 1 3.563 1.549 5.17
 163 1 0.504 1.343 7.118
 164 1 3.901 1.209 7.926
 165 1 0.817 0.79 6.64
 166 1 2.36 1.725 6.889
 167 1 4.248 4.989 7.459
 168 1 2.782 3.433 5.891
 169 1 4.979 3.148 4.311
 170 1 1.456 0.231 5.853
 171 1 2.402 3.015 3.284
 172 1 5.393 2.835 4.935
 173 1 2.274 2.24 5.814
 174 1 2.245 2.835 6.665
 175 1 0.869 4.236 5.657
 176 1 3.822 1.962 6.438
 177 1 2.075 5.261 4.987
 178 1 0.06 2.451 7.358
 179 1 5.315 4.02 4.127
 180 1 1.374 0.445 2.719
 181 1 0.777 4.365 7.666
 182 1 4.5 4.813 4.374
 183 1 1.28 3.323 8.112
 184 1 0.073 5.342 6.597
 185 1 2.155 2.17 5.375
 186 1 2.38 0.891 2.7
 187 1 3.672 2.995 7.07
 188 1 1.643 2.997 7.106
 189 1 0.45 3.778 6.954
 190 1 3.693 2.657 7.342
 191 1 0.771 0.871 5.662
 192 1 3.183 2.472 4.198
 193 1 4.945 4.636 4.326
 194 1 1.201 1.638 4.605
 195 1 3.344 3.585 7.274
 196 1 1.972 1.78 3.741
 197 1 5.233 3.451 3.739
 198 1 2.683 5.386 6.533
 199 1 3.807 0.121 3.226
 200 1 4.427 3.883 6.74
 201 1 4.168 3.227 5.175
 202 1 4.544 2.413 7.236
 203 1 2.639 0.779 5.786
 204 1 0.672 3.944 4.038
 205 1 0.546 3.71 3.159
 206 1 2.556 5.329 3.928
 207 1 3.666 5.441 7.051
 208 1 3.058 3.942 5.928
 209 1 2.68 3.23 3.309
 210 1 1.058 3.451 7.266
 211 1 3.843 4.7 5.806
 212 1 1.969 0.474 5.086
 213 1 2.277 4.64 6.654
 214 1 1.759 0.745 2.763
 215 1 0.867 0.925 3.074
 216 1 0.284 3.637 5.672
 217 1 0.263 3.631 7.071
 218 1 5.412 1.585 7.686
 219 1 2.073 5.44 2.756
 220 1 2.508 1.384 8.063
 221 1 4.137 5.174 7.258
 222 1 3.454 0.356 6.058
 223 1 1.878 0.671 6.957
 224 1 2.096 0.375 5.287
 225 1 3.374 1.306 5.028
 226 1 0.766 2.749 4.343
 227 1 0.652 3.912 5.501
 228 1 1.804 5.287 4.784
 229 1 5.303 3.765 6.966
 230 1 3.871 2.802 6.446
 231 1 1.911 4.38 7.038
 232 1 5.367 4.25 6.682
 233 1 1.122 2.06 6.258
 234 1 0.656 3.605 5.366
 235 1 3.316 4.236 6.481
 236 1 3.4 4.961 5.943
 237 1 4.44 1.261 4.937
 238 1 1.551 2.707 5.309
 239 1 1.952 2.669 4.466
 240 1 4.926 0.991 3.976
 241 1 1.234 5.168 3.952
 242 1 2.896 2.718 4.431
 243 1 4.302 4.436 5.14
 244 1 2.533 2.699 7.394
 245 1 1.763 3.038 3.904
 246 1 1.419 2.475 2.844
 247 1 1.074 0.248 6.119
 248 1 4.294 2.468 3.634
 249 1 1.232 2.116 7.647
 250 1 2.115 1.546 5.338
 251 1 3.041 0.787 3.921
 252 1 4.389 0.457 4.374
 253 1 3.736 2.632 3.8
 254 1 3.842 1.679 3.603
 255 1 1.022 2.207 6.497
 256 1 1.834 4.903 8.047
 257 1 2.305 4.125 4.286
 258 1 0.265 0.831 4.84
 259 1 2.807 4.964 7.289
 260 1 2.664 3.363 4.879
 261 1 1.54 2.59 5.627
 262 1 4.596 2.264 8.124
 263 1 1.136 2.682 3.367
 264 1 4.341 0.35 7.764
 265 1 2.007 1.344 7.543
 266 1 1.536 5.019 3.114
 267 1 0.146 1.17 8.068
 268 1 1.129 0.328 7.697
 269 1 0.699 0.155 5.197
 270 1 5.1 4.599 4.725
 271 1 4.337 4.467 7.083
 272 1 2.527 4.706 6.775
 273 1 4.815 1.282 8.046
 274 1 4.164 2.486 5.508
 275 1 3.826 4.715 4.514
 276 1 0.316 3.944 6.593
 277 1 4.686 0.821 4.179
 278 1 3.956 2.598 5.242
 279 1 4.728 0.846 2.796
 280 1 4.359 3.115 3.095
 281 1 2.094 2.818 7.401
 282 1 0.984 3.427 6.558
 283 1 2.007 3.466 5.452
 284 1 3.48 0.315 7.208
 285 1 0.766 5.284 5.374
 286 1 0.114 0.357 8.11
 287 1 1.597 0.513 7.302
 288 1 4.962 0.681 3.31
 289 1 1.748 0.231 7.939
 290 1 2.068 4.22 3.482
 291 1 2.703 1.73 2.763
 292 1 0.345 2.805 6.94
 293 1 0.479 1.029 3.377
 294 1 1.248 0.976 5.543
 295 1 0.239 5.05 7.942
 296 1 2.305 4.141 5.571
 297 1 2.331 4.286 5.932
 298 1 2.361 2.244 6.456
 299 1 1.588 2.068 5.585
 300 1 4.471 2.053 6.232
 301 1 4.944 2.295 4.907
 302 1 3.171 0.86 8.017
 303 1 1.038 3.57 7.64
 304 1 3.35 0.469 7.744
 305 1 1.885 2.92 8.194
 306 1 1.659 5.018 3.938
 307 1 1.048 4.081 6.13
 308 1 0.804 5.4 7.693
 309 1 2.36 0.4 5.673
 310 1 2.696 1.381 7.731
 311 1 5.098 2.596 4.63
 312 1 5.059 0.29 5.156
 313 1 1.593 5.378 6.648
 314 1 5.429 0.41 5.101
 315 1 2.236 3.763 5.282
 316 1 4.971 2.314 2.814
 317 1 2.228 0.324 4.481
 318 1 4.062 4.395 3.282
 319 1 0.279 4.86 5.666
 320 1 2.054 2.07 6.593
 321 1 3.808 0.999 5.716
 322 1 5.189 4.506 7.529
 323 1 1.133 2.868 6.309
 324 1 3.85 0.586 4.307
 325 1 3.843 0.246 7.369
 326 1 3.758 0.128 4.712
 327 1 0.716 2.39 6.044
 328 1 1.253 4.451 7.961
 329 1 0.026 3.693 4.592
 330 1 1.077 2.262 7.425
 331 1 3.304 1.688 6.477
 332 1 0.747 0.165 3.893
 333 1 1.234 2.651 4.73
 334 1 0.489 4.512 6.905
 335 1 3.395 3.968 4.656
 336 1 4.646 2.835 5.585
 337 1 1.054 2.257 3.166
 338 1 3.235 3.666 5.014
 339 1 2.302 5.249 2.72
 340 1 4.597 0.445 3.65
 341 1 3.768 1.972 4.866
 342 1 0.777 4.63 5.716
 343 1 3.558 0.65 4.903
 344 1 2.046 4.879 2.782
 345 1 1.777 2.697 7.551
 346 1 3.392 2.11 5.829
 347 1 4.662 2.388 4.496
 348 1 3.911 3.607 3.274
 349 1 4.044 0.293 5.311
 350 1 1.988 0.992 7.811
 351 1 1.945 1.805 6.843
 352 1 4.287 5.132 7.025
 353 1 3.949 4.22 4.279
 354 1 5.124 4.032 3.396
 355 1 1.209 4.341 7.72
 356 1 4.526 0.909 5.215
 357 1 4.754 0.167 5.247
 358 1 3.486 3.076 6.714
 359 1 3.521 4.322 6.251
 360 1 0.744 2.06 5.004
 361 1 4.041 0.667 4.738
 362 1 0.352 3.584 6.399
 363 1 3.54 3.195 4.383
 364 1 3.633 4.086 3.002
 365 1 1.127 0.597 3.491
 366 1 5.183 4.852 4.258
 367 1 4.725 2.279 5.141
 368 1 0.783 3.32 4.175
 369 1 2.122 1.668 4.993
 370 1 0.736 4.587 5.427
 371 1 2.889 0.492 7.224
 372 1 4.179 3.125 4.826
 373 1 5.193 2.484 3.081
 374 1 3.713 2.225 4.75
 375 1 0.705 2.576 3.434
 376 1 1.949 5.185 6.85
 377 1 1.989 3.781 8.208
 378 1 4.367 2.876 5.819
 379 1 0.601 0.818 7.35
 380 1 2.529 4.816 8.097
 381 1 1.196 5.418 5.939
 382 1 3.032 2.122 7.722
 383 1 5.452 5.268 2.992
 384 1 4.541 1.525 4.143
 385 1 0.702 2.48 5.066
 386 1 5.296 0.434 7.094
 387 1 2.466 3.572 5.654
 388 1 3.84 0.951 7.869
 389 1 4.545 3.348 6.286
 390 1 2.973 0.363 4.031
 391 1 4.876 1.52 6.81
 392 1 5.193 3.417 5.503
 393 1 0.142 2.771 6.106
 394 1 1.843 5.239 8.013
 395 1 3.879 2.354 2.741
 396 1 1.874 4.473 4.921
 397 1 0.821 1.696 5.754
 398 1 0.797 1.254 6.093
 399 1 3.634 5.409 6.305
 400 1 2.836 0.928 7.461
 401 1 5.312 0.408 3.086
 402 1 4.668 3.576 7.865
 403 1 1.038 4.271 6.371
 404 1 3.585 3.991 5.516
 405 1 0.727 0.405 7.354
 406 1 1.446 4.983 4.985
 407 1 4.86 0.955 3.286
 408 1 2.799 2.093 6.16
 409 1 4.711 5.303 4.365
 410 1 3.181 2.511 7.388
 411 1 4.6 1.901 4.747
 412 1 1.461 4.807 4.251
 413 1 4.864 3.162 3.33
 414 1 1.687 1.135 2.874
 415 1 1.519 1.979 7.927
 416 1 4.447 1.238 4.167
 417 1 3.017 3.257 4.997
 418 1 1.021 4.945 6.783
 419 1 5.14 4.724 7.689
 420 1 4.125 1.719 5.375
 421 1 0.941 2.46 3.026
 422 1 2.738 2.747 4.751
 423 1 4.444 3.967 6.188
 424 1 2.035 4.209 4.142
 425 1 1.237 3.264 3.594
 426 1 1.486 3.828 4.272
 427 1 5.502 1.546 3.909
 428 1 0.466 3.886 6.154
 429 1 0.078 0.177 4.099
 430 1 2.18 5.346 6.753
 431 1 2.919 0.108 5.5
 432 1 4.998 1.434 7.438
 433 1 4.47 3.225 4.512
 434 1 4.341 0.24 4.223
 435 1 3.787 2.256 4.454
 436 1 4.109 4.841 5.998
 437 1 0.199 2.376 6.164
 438 1 1.114 2.189 4.65
 439 1 0.093 0.219 3.749
 440 1 4.584 2.167 4.65
 441 1 1.944 1.689 3.46
 442 1 5.061 2.037 5.013
 443 1 4.013 3.854 4.035
 444 1 3.466 2.065 4.043
 445 1 3.042 0.26 4.691
 446 1 5.18 1.55 6.127
 447 1 5.203 3.493 7.566
 448 1 3.096 4.166 8.137
 449 1 5.102 4.783 8.17
 450 1 4.862 1.22 5.695
 451 1 3.949 0.361 5.848
 452 1 3.467 3.761 5.574
 453 1 5 2.316 3.221
 454 1 2.921 3.446 3.212
 455 1 2.769 3.069 6.756
 456 1 1.421 1.792 7.239
 457 1 2.994 0.994 6.066
 458 1 2.207 1.809 7.892
 459 1 3.641 3.267 6.819
 460 1 2.853 3.454 4.049
 461 1 3.736 5.242 5.938
 462 1 3.976 4.931 5.358
 463 1 5.202 3.241 4.195
 464 1 1.498 3.012 5.241
 465 1 5.264 4.886 3.664
 466 1 2.259 1.488 7.994
 467 1 0.243 2.523 3.089
 468 1 4.136 2.654 4.063
 469 1 2.483 4.311 3.456
 470 1 5.057 3.182 5.353
 471 1 4.601 4.019 7.652
 472 1 0.884 5.206 7.083
 473 1 2.875 5.051 6.865
 474 1 5.305 1.954 5.125
 475 1 4.214 5.432 5.034
 476 1 4 2.685 7.875
 477 1 0.242 4.796 7.807
 478 1 1.985 1.032 5.511
 479 1 2.788 2.976 7.587
 480 1 3.487 2.938 8.04
 481 1 1.694 3.921 5.452
 482 1 4.576 0.731 2.998
 483 1 4.273 4.497 4.03
 484 1 5.451 4.126 6.35
 485 1 3.376 3.562 5.226
 486 1 4.623 3.947 7.04
 487 1 4.116 3.266 6.396
 488 1 4.935 1.272 5.977
 489 1 3.96 4.323 3.528
 490 1 2.614 4.31 6.934
 491 1 1.645 5.477 3.972
 492 1 4.926 3.19 6.566
 493 1 4.534 3.789 4.059
 494 1 4.668 5.406 7.722
 495 1 4.416 2.31 5.45
 496 1 3.723 3.479 4.155
 497 1 3.285 0.474 5.599
 498 1 1.337 3.756 7.23
 499 1 5.069 4.559 5.821
 500 1 1.656 3.717 6.151
 501 1 1.633 3.063 7.791
 502 1 4.005 1.232 3.437
 503 1 3.474 2.65 5.183
 504 1 0.697 3.545 7.067
 505 1 0.671 1.712 7.489
 506 1 5.086 3.072 4.739
 507 1 5.258 1.581 5.769
 508 1 1.616 0.469 8.018
 509 1 2.883 3.492 3.714
 510 1 1.437 3.727 5.98
 511 1 2.96 5.375 4.166
 512 1 1.48 1.299 7.676
 513 1 0.5 4.85 3.68
 514 1 4.091 3.799 7.552
 515 1 2.818 2.667 6.56
 516 1 0.644 1.48 7.638
 517 1 2.652 4.65 6.089
 518 1 2.902 1.655 5.484
 519 1 4.082 3.393 4.883
 520 1 3.236 0.29 5.395
 521 1 5.426 5.083 5.489
 522 1 0.332 4.931 5.389
 523 1 1.906 3.637 7.52
 524 1 5.131 5.185 8.053
 525 1 0.893 1.394 7.26
 526 1 3.313 3.345 3.892
 527 1 0.908 4.472 7.065
 528 1 3.083 5.408 4.903
 529 1 3.09 2.087 6.749
 530 1 1.37 0.087 2.918
 531 1 0.358 0.302 7.983
 532 1 3.212 2.347 5.477
 533 1 2.949 3.985 6.243
 534 1 0.033 0.938 4.365
 535 1 5.071 4.84 4.599
 536 1 3.227 4.529 7.919
 537 1 4.515 5.222 5.268
 538 1 2.081 3.161 5.374
 539 1 4.918 1.886 2.856
 540 1 2.576 4.462 7.78
 541 1 5.005 5.24 4.097
 542 1 1.723 4.841 4.312
 543 1 3.869 0.168 5.583
 544 1 5.088 4.396 3.679
 545 1 0.73 5.114 5.161
 546 1 5.122 1.8 3.036
 547 1 4.997 1.101 7.642
 548 1 5.238 2.323 6.943
 549 1 1.409 2.055 4.707
 550 1 5.179 4.27 4.669
 551 1 2.863 3.795 6.047
 552 1 1.999 4.636 8.03
 553 1 2.613 1.968 3.783
 554 1 3.531 2.227 2.901
 555 1 0.507 3.178 5.074
 556 1 2.736 3.346 4.343
 557 1 1.149 4.167 6.951
 558 1 1.097 0.942 5.208
 559 1 4.77 0.878 3.805
 560 1 2.506 3.513 3.82
 561 1 1.302 2.948 7.645
 562 1 4.765 4.349 5.857
 563 1 2.248 2.657 5.542
 564 1 1.999 3.704 6.244
 565 1 2.693 4.114 3.508
 566 1 1.834 3.709 5.046
 567 1 5.293 1.282 3.937
 568 1 0.673 5.316 4.392
 569 1 1.917 2.316 4.275
 570 1 1.883 4.012 5.619
 571 1 2.191 1.804 6.206
 572 1 4.119 4.698 5.728
 573 1 5.146 1.244 5.147
 574 1 3.712 2.37 3.077
 575 1 2.046 1.217 4.995
 576 1 2.045 1.468 3.184
 577 1 2.627 4.376 5.552
 578 1 0.19 4.345 7.847
 579 1 1.545 3.239 3.364
 580 1 2.666 0.233 7.545
 581 1 4.992 3.312 7.658
 582 1 3.215 3.378 6.628
 583 1 0.433 3.593 3.956
 584 1 0.177 5.245 6.831
 585 1 1.898 1.315 7.785
 586 1 0.53 1.053 5.595
 587 1 0.955 3.673 7.401
 588 1 0.933 0.988 6.805
 589 1 1.564 2.52 4.406
 590 1 4.481 4.822 3.226
 591 1 0.364 0.14 4.119
 592 1 0.037 2.158 5.421
 593 1 0.704 1.407 3.291
 594 1 5.375 1.565 3.239
 595 1 0.953 2.271 6.181
 596 1 0.752 5.109 6.871
 597 1 0.204 1.902 3.771
 598 1 0.915 4.04 4.619
 599 1 4.029 1.775 6.077
 600 1 0.362 5.155 4.869
 601 1 0.331 1.322 6.037
 602 1 0.252 0.261 5.243
 603 1 3.08 4.409 7.376
 604 1 2.358 0.511 7.715
 605 1 2.104 5 5.623
 606 1 3.02 2.856 8.048
 607 1 1.845 0.838 5.903
 608 1 2.556 0.955 5.062
 609 1 1.643 4.011 4.462
 610 1 0.178 2.752 4.222
 611 1 5.332 2.881 5.634
 612 1 4.035 3.528 4.552
 613 1 2.422 4.175 2.758
 614 1 0.22 2.381 7.613
 615 1 1.594 2.996 7.359
 616 1 1.756 2.363 2.873
 617 1 4.206 5.357 5.552
 618 1 5.3 4.118 5.589
 619 1 1.122 3.817 5.827
 620 1 5.474 1.282 6.203
 621 1 0.185 2.652 5.528
 622 1 4.183 2.608 6.253
 623 1 2.82 4.566 5.287
 624 1 0.361 2.965 4.921
 625 1 3.427 5.045 6.195
 626 1 2.884 4.571 4.686
 627 1 3.487 4.134 4.881
 628 1 0.982 2.276 7.973
 629 1 0.921 2.019 4.787
 630 1 4.913 0.596 7.019
 631 1 1.119 0.691 8.115
 632 1 4.732 2.024 3.554
 633 1 4.486 2.662 3.32
 634 1 3.51 4.754 3.564
 635 1 2.228 0.24 7.246
 636 1 3.619 5.065 6.758
 637 1 0.147 1.957 7.833
 638 1 4.802 2.061 4.147
 639 1 1.321 0.716 3.841
 640 1 1.082 0.401 8.12
 641 1 5.201 1.25 7.475
 642 1 2.276 3.364 3.855
 643 1 1.567 4.603 4.968
 644 1 0.756 2.272 2.9
 645 1 4.921 2.596 7.929
 646 1 2.556 5.175 7.811
 647 1 4.575 3.978 5.948
 648 1 4.511 0.391 7.518
 649 1 5.465 2.977 3.874
 650 1 3.74 5.182 3.536
 651 1 2.417 1.794 2.838
 652 1 3.474 1.957 7.733
 653 1 0.2 0.829 8.042
 654 1 5.343 4.817 3.916
 655 1 4.6 1.543 3.075
 656 1 1.628 0.934 3.602
 657 1 2.964 3.066 5.899
 658 1 0.966 0.544 7.823
 659 1 0.352 0.746 7.114
 660 1 1.607 4.216 3.033
 661 1 1.237 2.734 7.495
 662 1 4.993 1.548 2.939
 663 1 1.098 3.483 2.786
 664 1 2.256 5.237 2.996
 665 1 4.617 1.265 6.1
 666 1 2.968 4.587 7.116
 667 1 4.375 5.197 3.338
 668 1 3.299 4.297 4.972
 669 1 4.297 2.761 7.229
 670 1 2.674 4.87 4.42
 671 1 1.655 3.187 3.595
 672 1 3.505 0.799 3.059
 673 1 4.329 0.607 5.22
 674 1 3.739 3.917 4.67
 675 1 2.25 0.98 2.921
 676 1 1.376 4.153 4.179
 677 1 1.864 3.797 6.017
 678 1 2.085 1.616 4.23
 679 1 3.563 4.726 4.789
 680 1 0.236 3.376 5.724
 681 1 1.082 0.82 6.362
 682 1 0.118 4.131 5.997
 683 1 4.342 3.927 4.479
 684 1 4.673 2.901 7.863
 685 1 2.407 2.876 6.452
 686 1 3.919 2.625 3.511
 687 1 0.003 0.778 7.537
 688 1 1.211 3.571 5.923
 689 1 1.235 1.085 4.69
 690 1 3.917 1.819 5.203
 691 1 2.504 1.921 3.531
 692 1 4.634 4.615 4.655
 693 1 0.737 5.224 8.152
 694 1 4.16 0.515 7.972
 695 1 1.369 0.513 5.561
 696 1 2.169 2.923 4.695
 697 1 3.21 1.767 6.731
 698 1 0.388 2.869 7.541
 699 1 1.805 3.806 4.797
 700 1 5.255 3.477 6.038
 701 1 2.293 3.259 6.835
 702 1 2.633 3.665 3.113
 703 1 4.875 0.617 8.06
 704 1 0.253 4.868 3.398
 705 1 1.79 3.564 7.171
 706 1 2.665 2.587 5.629
 707 1 1.991 1.45 5.105
 708 1 2.147 3.7 7.822
 709 1 3.879 0.037 5.169
 710 1 1.97 4.765 7.37
 711 1 3.946 0.94 3.212
 712 1 5.039 2.822 4.8
 713 1 0.334 0.079 5.428
 714 1 3.223 3.653 5.451
 715 1 1.571 4.837 6.213
 716 1 3.94 1.098 6.34
 717 1 4.911 5.245 3.727
 718 1 1.266 1.889 3.936
 719 1 3.65 1.504 7.186
 720 1 4.958 0.131 3.577
 721 1 4.255 5.007 3.913
 722 1 0.533 2.508 3.703
 723 1 0.352 0.546 3.937
 724 1 4.916 3.883 4.116
 725 1 4.266 2.287 8.03
 726 1 1.689 0.146 4.545
 727 1 0.569 4.904 4.87
 728 1 1.988 2.622 3.038
 729 1 0.328 2.867 6.284
 730 1 4.713 0.671 3.507
 731 1 3.264 0.926 4.215
 732 1 0.256 0.196 4.974
 733 1 1.735 0.975 4.872
 734 1 0.511 5.281 5.467
 735 1 1.745 3.78 4.017
 736 1 0.299 3.464 3.457
 737 1 0.005 2.981 7.804
 738 1 2.654 2.154 4.401
 739 1 1.256 2.235 7.89
 740 1 3.941 0.553 6.908
 741 1 4.569 3.106 4.286
 742 1 1.493 3.986 3.663
 743 1 5.214 0.618 2.855
 744 1 4.243 3.128 7.087
 745 1 4.253 4.56 6.202
 746 1 2.965 3.441 7.566
 747 1 0.368 4.9 2.958
 748 1 4.518 0.378 6.665
 749 1 4.648 0.895 6.268
 750 1 1.379 2.24 8.11
 751 1 2.924 4.725 6.09
 752 1 3.091 2.89 5.702
 753 1 4.858 0.171 4.893
 754 1 2.201 0.49 8.077
 755 1 5.077 0.93 6.792
 756 1 1.527 2.237 7.353
 757 1 4.923 2.306 3.556
 758 1 1.154 3.505 3.148
 759 1 0.415 2.408 7.055
 760 1 2.544 3.077 4.457
 761 1 1.555 4.975 7.35
 762 1 2.673 3.403 3.088
 763 1 0.94 2.583 5.362
 764 1 3.873 4.903 4.11
 765 1 4.363 5.371 3.534
 766 1 2.902 4.509 5.847
 767 1 1.335 1.97 5.605
 768 1 5.412 4.303 5.879
 769 1 1.711 0.52 5.152
 770 1 0.643 4.515 7.402
 771 1 3.072 0.945 3.538
 772 1 2.753 0.743 5.29
 773 1 0.52 5.049 4.527
 774 1 4.654 4.692 3.056
 775 1 0.723 0.094 6.512
 776 1 5.347 1.246 5.349
 777 1 0.21 4.656 6.761
 778 1 2.025 1.367 8.039
 779 1 2.216 4.908 4.582
 780 1 3.744 0.428 6.426
 781 1 3.892 0.172 6.66
 782 1 2.061 1.494 3.605
 783 1 3.172 5.397 7.061
 784 1 5.189 2.924 7.702
 785 1 0.699 0.206 4.577
 786 1 1.299 5.266 4.308
 787 1 0.883 1.194 7.573
 788 1 3.367 4.971 3.462
 789 1 4.805 0.388 7.828
 790 1 4.117 0.085 3.186
 791 1 0.167 1.234 4.984
 792 1 0.432 1.067 5.267
 793 1 5.411 4.088 4.566
 794 1 2.347 2.308 3.852
 795 1 3.113 3.339 5.819
 796 1 3.106 5.168 6.19
 797 1 1.328 0.075 6.426
 798 1 1.579 4.633 7.67
 799 1 2.14 3.182 8.026
 800 1 2.452 4.966 5.068
 801 1 0.247 0.363 3.576
 802 1 1.541 1.938 2.979
 803 1 1.567 0.744 3.029
 804 1 3.9 3.819 3.758
 805 1 4.723 4.003 3.724
 806 1 3.695 0.281 5.186
 807 1 2.946 4.104 4.001
 808 1 0.488 0.406 3.162
 809 1 4.553 3.693 2.714
 810 1 4.786 0.665 5.26
 811 1 4.282 4.398 5.424
 812 1 4.323 3.996 7.725
 813 1 2.593 4.241 4.282
 814 1 0.432 0.164 4.366
 815 1 3.869 4.112 7.559
 816 1 2.254 4.207 6.611
 817 1 0.966 2.84 8.177
 818 1 0.981 3.296 3.208
 819 1 5.444 5.045 7.051
 820 1 0.192 2.54 4.756
 821 1 2.09 2.332 6.205
 822 1 4.694 3.979 3.443
 823 1 0.875 3.252 4.66
 824 1 2.403 0.191 3.862
 825 1 1.746 5.082 4.427
 826 1 0.832 3.349 5.723
 827 1 1.675 3.475 5.149
 828 1 2.565 3.207 7.542
 829 1 4.575 1.244 7.455
 830 1 3.024 2.287 4.521
 831 1 1.993 1.355 5.561
 832 1 5.299 4.788 5.731
 833 1 4.241 2.205 7.475
 834 1 1.729 2.324 5.012
 835 1 1.322 0.726 5.971
 836 1 1.244 1.743 5.46
 837 1 2.975 0.223 6.707
 838 1 2.855 0.604 8.023
 839 1 0.017 2.258 6.482
 840 1 2.409 3.045 7.106
 841 1 1.12 1 7.19
 842 1 4.523 1.613 5.551
 843 1 2.879 3.745 5.524
 844 1 0.199 4.778 4.652
 845 1 3.116 4.129 7.415
 846 1 5.07 2.548 3.545
 847 1 3.461 2.577 5.875
 848 1 1.802 1.452 4.635
 849 1 0.028 0.509 7.638
 850 1 1.913 4.287 5.456
 851 1 4.406 1.365 6.397
 852 1 3.152 0.867 5.874
 853 1 2.311 2.465 7.054
 854 1 3.485 4.333 4.036
 855 1 1.633 2.299 7.122
 856 1 2.411 0.165 5.085
 857 1 1.032 0.549 3.258
 858 1 0.497 0.474 7.199
 859 1 2.865 0.368 3.203
 860 1 3.244 1.84 6.271
 861 1 2.259 4.01 7.466
 862 1 4.891 3.448 4.805
 863 1 5.148 1.981 5.523
 864 1 2.387 4.41 7.528
 865 1 5.293 3.206 7.283
 866 1 2.423 2.98 5.806
 867 1 5.397 5.45 7.198
 868 1 4.258 4.941 7.896
 869 1 4.008 0.006 5.417
 870 1 1.047 2.063 4.108
 871 1 4.63 0.47 3
 872 1 2.492 4.667 7.416
 873 1 5.345 1.26 4.901
 874 1 1.543 4.29 3.45
 875 1 4.417 0.417 4.703
 876 1 2.71 2.558 7.012
 877 1 1.31 2.893 8.066
 878 1 2.23 1.166 3.162
 879 1 3.179 2.681 4.396
 880 1 2.075 2.041 2.83
 881 1 0.086 1.635 6.426
 882 1 3.78 1.438 3.678
 883 1 1.312 5.114 6.761
 884 1 2.525 3.46 7.467
 885 1 5.295 2.216 4.109
 886 1 3.455 2.191 5.549
 887 1 4.091 4.841 5.038
 888 1 1.376 3.81 2.945
 889 1 2.648 5.07 3.624
 890 1 2.941 4.006 5.106
 891 1 0.908 5.429 3.127
 892 1 5.278 0.827 6.651
 893 1 0.855 4.777 4.525
 894 1 1.964 2.331 4.874
 895 1 0.259 3.496 5.038
 896 1 5.235 5.347 3.332
 897 1 2.832 2.328 6.314
 898 1 3.094 3.877 7.082
 899 1 3.085 3.007 2.829
 900 1 0.99 0.3 3.097
 901 1 4.34 4.963 6.143
 902 1 5.025 1.455 6.603
 903 1 0.464 1.129 6.797
 904 1 0.545 2.951 6.127
 905 1 3.039 3.377 6.999
 906 1 3.102 5.179 3.271
 907 1 2.704 1.1 8.077
 908 1 1.911 1.757 5.703
 909 1 5.016 0.359 3.354
 910 1 4.672 5.419 5.105
 911 1 1.556 5.362 5.161
 912 1 2.177 3.331 2.835
 913 1 2.056 2.972 3.157
 914 1 3.668 3.369 5.697
 915 1 3.351 4.184 4.219
 916 1 0.458 3.521 7.219
 917 1 2.213 2.412 3.572
 918 1 0.503 3.776 2.74
 919 1 3.336 5.136 3.167
 920 1 2.786 1.033 5.341
 921 1 4.281 5.029 5.252
 922 1 4.43 3.589 6.46
 923 1 3.715 3.746 5.453
 924 1 1.437 2.004 6.908
 925 1 3.648 1.163 5.11
 926 1 1.621 4.97 5.973
 927 1 0.31 0.611 4.432
 928 1 1.234 2.159 5.257
 929 1 2.519 1.347 4.203
 930 1 4.877 5.136 3.341
 931 1 0.726 4.607 4.297
 932 1 0.644 2.443 7.38
 933 1 5.146 0.776 7.337
 934 1 0.873 5.331 5.671
 935 1 1.823 3.527 3.223
 936 1 1.642 3.698 8.038
 937 1 0.438 0.063 7.824
 938 1 2.163 1.813 6.638
 939 1 1.503 0.246 6.622
 940 1 2.087 1.179 4.315
 941 1 4.032 4.038 5.027
 942 1 3.12 3.106 7.198
 943 1 3.582 1.144 2.852
 944 1 2.336 2.17 8.027
 945 1 2.329 3.084 3.713
 946 1 4.056 0.92 5.04
 947 1 3.889 1.983 7.599
 948 1 2.255 4.632 4.855
 949 1 1.07 4.604 6.207
 950 1 1.391 4.61 4.521
 951 1 0.059 4.668 4.882
 952 1 2.164 3.902 4.389
 953 1 0.991 3.887 4.317
 954 1 3.833 3.471 7.409
 955 1 1.244 2.472 3.116
 956 1 3.745 1.131 6.69
 957 1 1.949 5.032 3.654
 958 1 2.795 2.444 5.251
 959 1 2.288 3.301 5.707
 960 1 2.17 3.932 3.826
 961 1 5.374 4.639 7.785
 962 1 0.004 0.488 3.813
 963 1 0.568 0.76 6.87
 964 1 4.55 5.257 4.163
 965 1 0.926 4.35 5.41
 966 1 5.234 0.211 7.539
 967 1 1.434 1.035 3.935
 968 1 4.414 3.224 3.334
 969 1 0.06 1.666 6.965
 970 1 0.2 5.369 7.12
 971 1 1.409 4.376 3.165
 972 1 1.464 3.484 4.976
 973 1 1.81 3.312 6.322
 974 1 3.845 3.534 5.581
 975 1 2.478 4.614 5.16
 976 1 1.944 3.686 6.579
 977 1 1.366 1.696 3.677
 978 1 0.264 1.99 4.635
 979 1 0.514 4.635 5.858
 980 1 0.437 0.847 5.068
 981 1 0.316 2.62 8.192
 982 1 4.738 0.545 3.254
 983 1 3.181 2.81 7.446
 984 1 3.111 4.003 3.12
 985 1 2.33 1.214 2.795
 986 1 0.05 2.298 8.206
 987 1 2.942 4.979 7.74
 988 1 3.265 2.569 3.952
 989 1 5.037 1.47 7.161
 990 1 1.255 1.701 5.992
 991 1 3.857 0.774 5.173
 992 1 4.012 0.011 6.403
 993 1 2.92 4.842 3.859
 994 1 1.518 0.155 7.787
 995 1 3.857 0.666 2.763
 996 1 0.851 3.668 4.901
 997 1 5.243 4.027 4.821
 998 1 2.984 0.607 6.107
 999 1 0.7 2.725 4.903
 1000 1 2.304 4.578 5.966
 1001 1 2.034 0.433 3.356
 1002 1 5.022 2.855 5.074
 1003 1 0.739 0.253 5.634
 1004 1 3.998 0.755 7.991
 1005 1 0.251 3.176 2.758
 1006 1 1.863 0.153 5.373
 1007 1 2.013 3.342 3.802
 1008 1 2.224 3.12 4.139
 1009 1 2.319 3.629 7.637
 1010 1 0.783 0.787 6.357
 1011 1 1.166 4.986 3.457
 1012 1 2.606 5.256 4.618
 1013 1 2.107 4.263 6.855
 1014 1 4.887 1.363 5.113
 1015 1 3.14 0.16 8.094
 1016 1 1.761 0.276 4.097
 1017 1 2.376 1.756 4.155
 1018 1 0.911 4.738 7.886
 1019 1 0.266 2.283 7.853
 1020 1 0.09 3.786 5.524
 1021 1 0.204 2.972 4.58
 1022 1 3.203 3.119 3.167
 1023 1 5.175 3.724 3.207
 1024 1 2.401 1.483 3.945
 1025 1 0.625 3.084 7.606
 1026 1 2.202 0.117 5.906
 1027 1 3.139 0.242 3.546
 1028 1 4.062 4.393 6.732
 1029 1 0.183 1.397 6.48
 1030 1 2.71 3.162 5.849
 1031 1 5.19 2.361 4.769
 1032 1 2.326 1.474 2.883
 1033 1 0.164 1.143 6.38
 1034 1 3.977 3.395 6.825
 1035 1 4.812 3.585 3.773
 1036 1 2.79 5.187 4.015
 1037 1 4.435 5.25 4.459
 1038 1 2.405 4.13 6.884
 1039 1 3.167 1.662 4.083
 1040 1 0.872 4.587 6.816
 1041 1 2.56 2.596 5.016
 1042 1 0.766 5.31 2.956
 1043 1 0.811 1.408 2.994
 1044 1 0.682 1.933 5.249
 1045 1 4.788 5.114 6.564
 1046 1 3.885 1.243 3.876
 1047 1 2.966 0.34 5.38
 1048 1 4.326 3.773 2.934
 1049 1 0.476 0.007 5.184
 1050 1 4.38 5.452 6.007
 1051 1 5.089 3.704 4.846
 1052 1 3.611 4.079 8.194
 1053 1 1.171 3.683 3.672
 1054 1 0.945 4.795 3.74
 1055 1 2.966 3.201 4.37
 1056 1 1.542 2.167 4.343
 1057 1 3.124 1.115 5.202
 1058 1 0.549 4.091 4.463
 1059 1 3.697 2.537 2.773
 1060 1 1.394 0.683 6.429
 1061 1 3.699 1.864 4.465
 1062 1 5.173 2.735 5.451
 1063 1 5.262 4.001 6.758
 1064 1 1.29 4.823 5.377
 1065 1 2.314 3.135 7.472
 1066 1 5.456 2.039 2.777
 1067 1 3.271 1.521 6.863
 1068 1 0.45 0.833 5.796
 1069 1 2.833 3.732 6.552
 1070 1 3.53 3.762 6.935
 1071 1 0.727 1.906 7.669
 1072 1 3.12 1.234 3.965
 1073 1 4.341 2.278 6.459
 1074 1 1.601 1.519 6.932
 1075 1 1.367 2.078 7.163
 1076 1 4.426 2.034 5.259
 1077 1 0.333 3.135 7.52
 1078 1 1.448 2.317 3.258
 1079 1 4.591 0.121 6.574
 1080 1 2.796 5.304 6.789
 1081 1 3.044 1.756 3.492
 1082 1 4.606 4.609 5.175
 1083 1 3.797 2.742 7.685
 1084 1 0.897 4.425 6.094
 1085 1 3.503 4.544 6.431
 1086 1 4.619 2.105 7.323
 1087 1 1.031 5.225 4.587
 1088 1 2.214 1.188 5.465
 1089 1 2.147 0.255 3.056
 1090 1 2.543 0.086 4.079
 1091 1 0.041 5.24 3.91
 1092 1 4.619 5.071 5.596
 1093 1 2.041 2.251 7.466
 1094 1 1.813 1.645 4.182
 1095 1 3.551 2.289 5.189
 1096 1 4.871 0.526 2.868
 1097 1 1.586 3.045 4.648
 1098 1 3.997 4.455 5.472
 1099 1 0.164 3.737 5.002
 1100 1 5.293 0.529 4.906
 1101 1 4.334 2.61 3.084
 1102 1 3.807 1.262 5.616
 1103 1 0.23 3.328 3.722
 1104 1 2.795 5.234 4.356
 1105 1 1.721 4.05 4.847
 1106 1 1.165 0.284 3.884
 1107 1 0.905 0.437 7.146
 1108 1 2.015 1.715 3.064
 1109 1 1.504 1.532 8.071
 1110 1 5.443 1.004 5.693
 1111 1 1.41 0.833 4.144
 1112 1 2.929 4.953 4.398
 1113 1 2.757 4.871 5.389
 1114 1 5.308 3.349 6.439
 1115 1 3.078 3.42 4.216
 1116 1 2.575 0.803 6.832
 1117 1 3.19 4.892 7.797
 1118 1 4.957 2.337 3.848
 1119 1 3.293 5.25 6.466
 1120 1 1.227 2.547 6.333
 1121 1 4.428 0.313 3.247
 1122 1 1.106 0.397 6.348
 1123 1 0.749 4.116 6.128
 1124 1 2.425 4.93 3.74
 1125 1 4.455 1.789 2.762
 1126 1 1.418 1.371 5.383
 1127 1 3.721 2.632 6.992
 1128 1 2.191 5.385 7.296
 1129 1 3.268 3.551 5.773
 1130 1 0.348 0.873 2.954
 1131 1 1.47 3.172 4.433
 1132 1 2.38 3.759 3.089
 1133 1 2.037 2.492 7.128
 1134 1 3.143 3.79 5.719
 1135 1 2.315 3.497 6.242
 1136 1 5.129 4.948 4.018
 1137 1 4.841 0.492 5.716
 1138 1 3.172 0.458 7.339
 1139 1 0.428 1.739 5.895
 1140 1 2.05 0.105 7.742
 1141 1 0.998 0.092 5.808
 1142 1 0.993 4.296 3.823
 1143 1 3.776 0.994 3.844
 1144 1 2.648 2.078 5.323
 1145 1 3.034 1.641 6.259
 1146 1 1.701 3.374 5.611
 1147 1 0.417 1.582 7.766
 1148 1 3.873 5.394 6.802
 1149 1 0.653 0.617 5.695
 1150 1 2.819 1.662 7.395
 1151 1 3.542 0.894 4.276
 1152 1 4.079 1.057 3.683
 1153 1 0.589 5.265 7.011
 1154 1 3.569 0.723 6.912
 1155 1 3.812 0.409 3.863
 1156 1 1.818 1.495 5.329
 1157 1 4.447 0.472 4.01
 1158 1 5.139 4.339 6.968
 1159 1 0.84 1.691 3.579
 1160 1 3.038 4.367 4.915
 1161 1 1.471 2.781 6.578
 1162 1 2.594 4.977 4.643
 1163 1 0.679 4.824 3.853
 1164 1 3.593 1.965 6.166
 1165 1 0.172 1.169 4.079
 1166 1 3.498 3.565 6.472
 1167 1 3.888 2.845 7.238
 1168 1 1.901 3.726 3.681
 1169 1 1.263 0.559 5.059
 1170 1 0.516 2.851 5.136
 1171 1 2.023 1.783 5.391
 1172 1 1.954 2.832 3.946
 1173 1 1.049 4.567 6.496
 1174 1 5.019 2.948 3.407
 1175 1 2.686 4.003 6.285
 1176 1 1.852 5.391 7.718
 1177 1 2.695 3.623 3.511
 1178 1 3.16 5.287 4.013
 1179 1 1.195 2.28 2.881
 1180 1 3.655 4.943 6.333
 1181 1 1.409 4.789 3.788
 1182 1 4.984 5.472 4.55
 1183 1 4.944 0.076 7.314
 1184 1 1.989 1.377 3.855
 1185 1 1.283 1.286 7.917
 1186 1 5.254 0.163 5.653
 1187 1 2.586 3.733 4.629
 1188 1 3.006 1.94 7.526
 1189 1 1.947 4.213 6.532
 1190 1 3.828 0.166 7.127
 1191 1 3.012 3.131 5.23
 1192 1 5.187 2.051 3.727
 1193 1 1.644 4.34 7.32
 1194 1 3.963 1.026 4.617
 1195 1 0.778 5.179 5.869
 1196 1 0.516 1.097 3.011
 1197 1 3.127 5.085 5.23
 1198 1 2.051 2.92 6.121
 1199 1 1.77 1.759 6.318
 1200 1 0.163 5.312 5.903
 1201 1 5.242 2.197 4.558
 1202 1 4.562 0.359 5.292
 1203 1 3.779 0.466 4.887
 1204 1 2.944 3.5 6.512
 1205 1 3.241 4.385 5.489
 1206 1 3.37 1.046 6.097
 1207 1 0.758 1.792 3.127