 Coarse-grained water

 5439 atoms

 1 atom types

 0.0000000E+00 5.466640  xlo xhi
 0.0000000E+00 5.466640  ylo yhi
 0.0000000E+00 10.93328  zlo zhi

 Masses

 1 18.01540 # CG

 Atoms

1 1 2.125000 5.389000 6.294000 # CG
2 1 4.126000 0.311000 4.500000 # CG
3 1 3.866000 5.490000 2.889000 # CG
4 1 3.961000 5.020000 6.746000 # CG
5 1 2.585000 1.988000 7.575000 # CG
6 1 4.020000 1.433000 4.146000 # CG
7 1 5.276000 1.542000 6.896000 # CG
8 1 3.139000 1.532000 7.927001 # CG
9 1 0.706000 4.267000 3.116000 # CG
10 1 0.986000 5.345000 3.396000 # CG
11 1 4.810000 2.399000 4.268000 # CG
12 1 4.688000 4.382000 6.287000 # CG
13 1 2.752000 2.647000 3.500000 # CG
14 1 2.719000 1.994000 6.985000 # CG
15 1 3.747000 4.355000 6.021000 # CG
16 1 4.698000 1.332000 4.252000 # CG
17 1 1.548000 3.420000 3.933000 # CG
18 1 3.200000 2.420000 7.637000 # CG
19 1 1.093000 3.652000 7.077001 # CG
20 1 3.244000 3.138000 4.204000 # CG
21 1 1.303000 4.668000 7.606000 # CG
22 1 1.308000 0.788000 7.739999 # CG
23 1 3.053000 5.300000 6.600000 # CG
24 1 4.067000 0.453000 6.653000 # CG
25 1 2.875000 4.651000 8.036000 # CG
26 1 1.595000 0.780000 5.080000 # CG
27 1 0.397000 3.163000 6.129000 # CG
28 1 2.260000 2.392000 4.482000 # CG
29 1 3.072000 3.081000 7.864999 # CG
30 1 0.768000 2.664000 4.067000 # CG
31 1 4.358000 5.204000 6.783000 # CG
32 1 1.186000 2.894000 4.849000 # CG
33 1 1.973000 3.918000 7.143000 # CG
34 1 4.978000 4.601000 6.625000 # CG
35 1 0.070000 2.721000 5.276000 # CG
36 1 5.245000 0.199000 6.651000 # CG
37 1 5.051000 0.083000 2.977000 # CG
38 1 4.653000 4.703000 4.915000 # CG
39 1 0.692000 2.778000 5.822000 # CG
40 1 3.405000 2.357000 4.352000 # CG
41 1 5.252000 0.565000 7.797000 # CG
42 1 4.805000 0.010000 6.087000 # CG
43 1 5.297000 1.075000 4.723000 # CG
44 1 2.153000 4.440000 7.672999 # CG
45 1 3.977000 2.631000 5.806000 # CG
46 1 0.122000 0.656000 6.295000 # CG
47 1 2.144000 0.272000 6.956000 # CG
48 1 2.842000 0.970000 4.824000 # CG
49 1 0.668000 3.955000 6.333000 # CG
50 1 0.238000 0.468000 2.862000 # CG
51 1 3.784000 1.421000 5.259000 # CG
52 1 0.788000 3.759000 2.752000 # CG
53 1 3.835000 2.454000 6.099000 # CG
54 1 0.913000 5.435000 4.341000 # CG
55 1 1.754000 1.452000 8.106000 # CG
56 1 4.018000 0.358000 3.680000 # CG
57 1 1.417000 2.028000 3.200000 # CG
58 1 4.708000 4.832000 4.217000 # CG
59 1 1.860000 3.535000 4.091000 # CG
60 1 5.077000 1.566000 5.079000 # CG
61 1 1.088000 1.734000 4.837000 # CG
62 1 5.322000 2.998000 2.996000 # CG
63 1 5.023000 4.592000 7.040000 # CG
64 1 2.481000 2.774000 5.515000 # CG
65 1 2.120000 3.956000 3.440000 # CG
66 1 2.413000 0.647000 3.128000 # CG
67 1 1.848000 5.318000 5.455000 # CG
68 1 4.448000 3.008000 5.106000 # CG
69 1 1.041000 4.959000 5.498000 # CG
70 1 1.950000 2.557000 4.121000 # CG
71 1 4.739000 1.174000 4.507000 # CG
72 1 0.846000 3.597000 2.954000 # CG
73 1 4.251000 2.674000 7.714000 # CG
74 1 2.815000 4.071000 6.969000 # CG
75 1 1.265000 4.933000 7.655000 # CG
76 1 2.191000 1.657000 8.204000 # CG
77 1 2.121000 0.130000 8.000000 # CG
78 1 0.814000 2.380000 6.910000 # CG
79 1 1.418000 4.788000 6.844000 # CG
80 1 4.431000 1.811000 6.340000 # CG
81 1 4.701000 2.646000 3.867000 # CG
82 1 3.575000 1.904000 5.855000 # CG
83 1 0.433000 2.271000 6.631000 # CG
84 1 1.251000 3.583000 5.563000 # CG
85 1 2.161000 3.866000 5.903000 # CG
86 1 3.788000 2.088000 5.336000 # CG
87 1 4.173000 2.440000 3.380000 # CG
88 1 0.207000 0.467000 3.136000 # CG
89 1 0.347000 0.833000 6.533999 # CG
90 1 0.274000 3.284000 3.986000 # CG
91 1 4.476000 3.938000 7.404000 # CG
92 1 4.158000 0.940000 2.793000 # CG
93 1 5.465000 2.826000 6.584001 # CG
94 1 3.335000 3.488000 7.526999 # CG
95 1 0.474000 3.632000 6.063000 # CG
96 1 1.650000 0.594000 5.541000 # CG
97 1 2.700000 4.520000 2.738000 # CG
98 1 1.233000 3.301000 5.857000 # CG
99 1 3.096000 1.835000 7.183000 # CG
100 1 5.257000 4.038000 7.388000 # CG
101 1 1.697000 3.781000 7.728000 # CG
102 1 4.638000 2.274000 3.500000 # CG
103 1 3.884000 4.095000 3.679000 # CG
104 1 0.682000 5.179000 4.049000 # CG
105 1 3.014000 4.345000 5.621000 # CG
106 1 5.299000 1.618000 4.598000 # CG
107 1 4.714000 2.458000 4.790000 # CG
108 1 0.108000 3.865000 7.992000 # CG
109 1 2.138000 3.245000 7.066000 # CG
110 1 4.871000 2.734000 3.525000 # CG
111 1 1.934000 4.471000 4.455000 # CG
112 1 1.078000 3.073000 8.117000 # CG
113 1 2.319000 0.355000 4.887000 # CG
114 1 4.588000 0.188000 2.867000 # CG
115 1 0.274000 3.615000 4.708000 # CG
116 1 0.155000 3.212000 3.087000 # CG
117 1 0.122000 0.149000 6.015000 # CG
118 1 2.462000 5.427000 2.978000 # CG
119 1 1.743000 1.135000 6.181000 # CG
120 1 1.988000 2.582000 5.424000 # CG
121 1 4.536000 3.288000 8.076000 # CG
122 1 0.552000 5.456000 7.619000 # CG
123 1 5.031000 4.369000 6.207000 # CG
124 1 4.225000 3.253000 2.817000 # CG
125 1 4.026000 1.508000 6.177000 # CG
126 1 3.476000 3.087000 3.590000 # CG
127 1 1.576000 0.931000 3.227000 # CG
128 1 4.722000 2.608000 5.722000 # CG
129 1 5.392000 5.265000 5.207000 # CG
130 1 2.522000 0.001000 7.776999 # CG
131 1 1.586000 5.111000 6.614999 # CG
132 1 0.784000 3.764000 6.508000 # CG
133 1 2.633000 3.809000 5.871000 # CG
134 1 3.414000 0.672000 2.814000 # CG
135 1 4.643000 3.805000 5.050000 # CG
136 1 2.983000 0.313000 6.294000 # CG
137 1 2.609000 5.351000 3.655000 # CG
138 1 0.785000 2.856000 5.604000 # CG
139 1 2.229000 0.208000 3.365000 # CG
140 1 0.832000 3.186000 4.395000 # CG
141 1 1.586000 2.797000 4.439000 # CG
142 1 4.573000 1.812000 4.084000 # CG
143 1 4.560000 1.085000 7.675000 # CG
144 1 3.461000 5.126000 2.945000 # CG
145 1 0.034000 3.368000 5.275000 # CG
146 1 1.854000 0.425000 6.835000 # CG
147 1 0.138000 2.543000 3.863000 # CG
148 1 0.751000 4.839000 6.842000 # CG
149 1 2.614000 3.693000 7.620000 # CG
150 1 2.062000 3.438000 3.155000 # CG
151 1 5.447000 0.835000 7.130000 # CG
152 1 0.814000 0.655000 6.048000 # CG
153 1 1.347000 0.309000 6.913001 # CG
154 1 4.690000 0.697000 6.461999 # CG
155 1 3.603000 0.443000 7.642000 # CG
156 1 1.928000 3.430000 4.651000 # CG
157 1 5.162000 3.813000 5.858000 # CG
158 1 0.944000 4.768000 7.110000 # CG
159 1 1.080000 3.058000 7.264000 # CG
160 1 3.356000 4.521000 3.541000 # CG
161 1 3.025000 2.106000 3.043000 # CG
162 1 3.563000 1.549000 5.170000 # CG
163 1 0.504000 1.343000 7.118000 # CG
164 1 3.901000 1.209000 7.926000 # CG
165 1 0.817000 0.790000 6.640000 # CG
166 1 2.360000 1.725000 6.889000 # CG
167 1 4.248000 4.989000 7.459001 # CG
168 1 2.782000 3.433000 5.891000 # CG
169 1 4.979000 3.148000 4.311000 # CG
170 1 1.456000 0.231000 5.853000 # CG
171 1 2.402000 3.015000 3.284000 # CG
172 1 5.393000 2.835000 4.935000 # CG
173 1 2.274000 2.240000 5.814000 # CG
174 1 2.245000 2.835000 6.665000 # CG
175 1 0.869000 4.236000 5.657000 # CG
176 1 3.822000 1.962000 6.438001 # CG
177 1 2.075000 5.261000 4.987000 # CG
178 1 0.060000 2.451000 7.358000 # CG
179 1 5.315000 4.020000 4.127000 # CG
180 1 1.374000 0.445000 2.719000 # CG
181 1 0.777000 4.365000 7.665999 # CG
182 1 4.500000 4.813000 4.374000 # CG
183 1 1.280000 3.323000 8.112000 # CG
184 1 0.073000 5.342000 6.597000 # CG
185 1 2.155000 2.170000 5.375000 # CG
186 1 2.380000 0.891000 2.700000 # CG
187 1 3.672000 2.995000 7.070001 # CG
188 1 1.643000 2.997000 7.106000 # CG
189 1 0.450000 3.778000 6.954000 # CG
190 1 3.693000 2.657000 7.342000 # CG
191 1 0.771000 0.871000 5.662000 # CG
192 1 3.183000 2.472000 4.198000 # CG
193 1 4.945000 4.636000 4.326000 # CG
194 1 1.201000 1.638000 4.605000 # CG
195 1 3.344000 3.585000 7.274001 # CG
196 1 1.972000 1.780000 3.741000 # CG
197 1 5.233000 3.451000 3.739000 # CG
198 1 2.683000 5.386000 6.533000 # CG
199 1 3.807000 0.121000 3.226000 # CG
200 1 4.427000 3.883000 6.739999 # CG
201 1 4.168000 3.227000 5.175000 # CG
202 1 4.544000 2.413000 7.236000 # CG
203 1 2.639000 0.779000 5.786000 # CG
204 1 0.672000 3.944000 4.038000 # CG
205 1 0.546000 3.710000 3.159000 # CG
206 1 2.556000 5.329000 3.928000 # CG
207 1 3.666000 5.441000 7.051000 # CG
208 1 3.058000 3.942000 5.928000 # CG
209 1 2.680000 3.230000 3.309000 # CG
210 1 1.058000 3.451000 7.266000 # CG
211 1 3.843000 4.700000 5.806000 # CG
212 1 1.969000 0.474000 5.086000 # CG
213 1 2.277000 4.640000 6.654000 # CG
214 1 1.759000 0.745000 2.763000 # CG
215 1 0.867000 0.925000 3.074000 # CG
216 1 0.284000 3.637000 5.672000 # CG
217 1 0.263000 3.631000 7.071000 # CG
218 1 5.412000 1.585000 7.686000 # CG
219 1 2.073000 5.440000 2.756000 # CG
220 1 2.508000 1.384000 8.063000 # CG
221 1 4.137000 5.174000 7.258000 # CG
222 1 3.454000 0.356000 6.058000 # CG
223 1 1.878000 0.671000 6.957000 # CG
224 1 2.096000 0.375000 5.287000 # CG
225 1 3.374000 1.306000 5.028000 # CG
226 1 0.766000 2.749000 4.343000 # CG
227 1 0.652000 3.912000 5.501000 # CG
228 1 1.804000 5.287000 4.784000 # CG
229 1 5.303000 3.765000 6.966001 # CG
230 1 3.871000 2.802000 6.446000 # CG
231 1 1.911000 4.380000 7.038001 # CG
232 1 5.367000 4.250000 6.682000 # CG
233 1 1.122000 2.060000 6.258000 # CG
234 1 0.656000 3.605000 5.366000 # CG
235 1 3.316000 4.236000 6.481000 # CG
236 1 3.400000 4.961000 5.943000 # CG
237 1 4.440000 1.261000 4.937000 # CG
238 1 1.551000 2.707000 5.309000 # CG
239 1 1.952000 2.669000 4.466000 # CG
240 1 4.926000 0.991000 3.976000 # CG
241 1 1.234000 5.168000 3.952000 # CG
242 1 2.896000 2.718000 4.431000 # CG
243 1 4.302000 4.436000 5.140000 # CG
244 1 2.533000 2.699000 7.394000 # CG
245 1 1.763000 3.038000 3.904000 # CG
246 1 1.419000 2.475000 2.844000 # CG
247 1 1.074000 0.248000 6.119000 # CG
248 1 4.294000 2.468000 3.634000 # CG
249 1 1.232000 2.116000 7.647000 # CG
250 1 2.115000 1.546000 5.338000 # CG
251 1 3.041000 0.787000 3.921000 # CG
252 1 4.389000 0.457000 4.374000 # CG
253 1 3.736000 2.632000 3.800000 # CG
254 1 3.842000 1.679000 3.603000 # CG
255 1 1.022000 2.207000 6.497000 # CG
256 1 1.834000 4.903000 8.047000 # CG
257 1 2.305000 4.125000 4.286000 # CG
258 1 0.265000 0.831000 4.840000 # CG
259 1 2.807000 4.964000 7.289000 # CG
260 1 2.664000 3.363000 4.879000 # CG
261 1 1.540000 2.590000 5.627000 # CG
262 1 4.596000 2.264000 8.124000 # CG
263 1 1.136000 2.682000 3.367000 # CG
264 1 4.341000 0.350000 7.764000 # CG
265 1 2.007000 1.344000 7.543000 # CG
266 1 1.536000 5.019000 3.114000 # CG
267 1 0.146000 1.170000 8.068000 # CG
268 1 1.129000 0.328000 7.697000 # CG
269 1 0.699000 0.155000 5.197000 # CG
270 1 5.100000 4.599000 4.725000 # CG
271 1 4.337000 4.467000 7.083000 # CG
272 1 2.527000 4.706000 6.775000 # CG
273 1 4.815000 1.282000 8.046000 # CG
274 1 4.164000 2.486000 5.508000 # CG
275 1 3.826000 4.715000 4.514000 # CG
276 1 0.316000 3.944000 6.593000 # CG
277 1 4.686000 0.821000 4.179000 # CG
278 1 3.956000 2.598000 5.242000 # CG
279 1 4.728000 0.846000 2.796000 # CG
280 1 4.359000 3.115000 3.095000 # CG
281 1 2.094000 2.818000 7.401000 # CG
282 1 0.984000 3.427000 6.558000 # CG
283 1 2.007000 3.466000 5.452000 # CG
284 1 3.480000 0.315000 7.208000 # CG
285 1 0.766000 5.284000 5.374000 # CG
286 1 0.114000 0.357000 8.110000 # CG
287 1 1.597000 0.513000 7.302001 # CG
288 1 4.962000 0.681000 3.310000 # CG
289 1 1.748000 0.231000 7.939000 # CG
290 1 2.068000 4.220000 3.482000 # CG
291 1 2.703000 1.730000 2.763000 # CG
292 1 0.345000 2.805000 6.940000 # CG
293 1 0.479000 1.029000 3.377000 # CG
294 1 1.248000 0.976000 5.543000 # CG
295 1 0.239000 5.050000 7.942000 # CG
296 1 2.305000 4.141000 5.571000 # CG
297 1 2.331000 4.286000 5.932000 # CG
298 1 2.361000 2.244000 6.456000 # CG
299 1 1.588000 2.068000 5.585000 # CG
300 1 4.471000 2.053000 6.232000 # CG
301 1 4.944000 2.295000 4.907000 # CG
302 1 3.171000 0.860000 8.017000 # CG
303 1 1.038000 3.570000 7.640000 # CG
304 1 3.350000 0.469000 7.744000 # CG
305 1 1.885000 2.920000 8.194000 # CG
306 1 1.659000 5.018000 3.938000 # CG
307 1 1.048000 4.081000 6.130000 # CG
308 1 0.804000 5.400000 7.693000 # CG
309 1 2.360000 0.400000 5.673000 # CG
310 1 2.696000 1.381000 7.731000 # CG
311 1 5.098000 2.596000 4.630000 # CG
312 1 5.059000 0.290000 5.156000 # CG
313 1 1.593000 5.378000 6.648000 # CG
314 1 5.429000 0.410000 5.101000 # CG
315 1 2.236000 3.763000 5.282000 # CG
316 1 4.971000 2.314000 2.814000 # CG
317 1 2.228000 0.324000 4.481000 # CG
318 1 4.062000 4.395000 3.282000 # CG
319 1 0.279000 4.860000 5.666000 # CG
320 1 2.054000 2.070000 6.593000 # CG
321 1 3.808000 0.999000 5.716000 # CG
322 1 5.189000 4.506000 7.529000 # CG
323 1 1.133000 2.868000 6.309000 # CG
324 1 3.850000 0.586000 4.307000 # CG
325 1 3.843000 0.246000 7.369000 # CG
326 1 3.758000 0.128000 4.712000 # CG
327 1 0.716000 2.390000 6.044000 # CG
328 1 1.253000 4.451000 7.961000 # CG
329 1 0.026000 3.693000 4.592000 # CG
330 1 1.077000 2.262000 7.425000 # CG
331 1 3.304000 1.688000 6.477000 # CG
332 1 0.747000 0.165000 3.893000 # CG
333 1 1.234000 2.651000 4.730000 # CG
334 1 0.489000 4.512000 6.905000 # CG
335 1 3.395000 3.968000 4.656000 # CG
336 1 4.646000 2.835000 5.585000 # CG
337 1 1.054000 2.257000 3.166000 # CG
338 1 3.235000 3.666000 5.014000 # CG
339 1 2.302000 5.249000 2.720000 # CG
340 1 4.597000 0.445000 3.650000 # CG
341 1 3.768000 1.972000 4.866000 # CG
342 1 0.777000 4.630000 5.716000 # CG
343 1 3.558000 0.650000 4.903000 # CG
344 1 2.046000 4.879000 2.782000 # CG
345 1 1.777000 2.697000 7.551000 # CG
346 1 3.392000 2.110000 5.829000 # CG
347 1 4.662000 2.388000 4.496000 # CG
348 1 3.911000 3.607000 3.274000 # CG
349 1 4.044000 0.293000 5.311000 # CG
350 1 1.988000 0.992000 7.811000 # CG
351 1 1.945000 1.805000 6.843000 # CG
352 1 4.287000 5.132000 7.025000 # CG
353 1 3.949000 4.220000 4.279000 # CG
354 1 5.124000 4.032000 3.396000 # CG
355 1 1.209000 4.341000 7.720000 # CG
356 1 4.526000 0.909000 5.215000 # CG
357 1 4.754000 0.167000 5.247000 # CG
358 1 3.486000 3.076000 6.714000 # CG
359 1 3.521000 4.322000 6.251000 # CG
360 1 0.744000 2.060000 5.004000 # CG
361 1 4.041000 0.667000 4.738000 # CG
362 1 0.352000 3.584000 6.399000 # CG
363 1 3.540000 3.195000 4.383000 # CG
364 1 3.633000 4.086000 3.002000 # CG
365 1 1.127000 0.597000 3.491000 # CG
366 1 5.183000 4.852000 4.258000 # CG
367 1 4.725000 2.279000 5.141000 # CG
368 1 0.783000 3.320000 4.175000 # CG
369 1 2.122000 1.668000 4.993000 # CG
370 1 0.736000 4.587000 5.427000 # CG
371 1 2.889000 0.492000 7.224000 # CG
372 1 4.179000 3.125000 4.826000 # CG
373 1 5.193000 2.484000 3.081000 # CG
374 1 3.713000 2.225000 4.750000 # CG
375 1 0.705000 2.576000 3.434000 # CG
376 1 1.949000 5.185000 6.850000 # CG
377 1 1.989000 3.781000 8.208000 # CG
378 1 4.367000 2.876000 5.819000 # CG
379 1 0.601000 0.818000 7.350000 # CG
380 1 2.529000 4.816000 8.097000 # CG
381 1 1.196000 5.418000 5.939000 # CG
382 1 3.032000 2.122000 7.722000 # CG
383 1 5.452000 5.268000 2.992000 # CG
384 1 4.541000 1.525000 4.143000 # CG
385 1 0.702000 2.480000 5.066000 # CG
386 1 5.296000 0.434000 7.094000 # CG
387 1 2.466000 3.572000 5.654000 # CG
388 1 3.840000 0.951000 7.869000 # CG
389 1 4.545000 3.348000 6.286000 # CG
390 1 2.973000 0.363000 4.031000 # CG
391 1 4.876000 1.520000 6.810000 # CG
392 1 5.193000 3.417000 5.503000 # CG
393 1 0.142000 2.771000 6.106000 # CG
394 1 1.843000 5.239000 8.013000 # CG
395 1 3.879000 2.354000 2.741000 # CG
396 1 1.874000 4.473000 4.921000 # CG
397 1 0.821000 1.696000 5.754000 # CG
398 1 0.797000 1.254000 6.093000 # CG
399 1 3.634000 5.409000 6.305000 # CG
400 1 2.836000 0.928000 7.461000 # CG
401 1 5.312000 0.408000 3.086000 # CG
402 1 4.668000 3.576000 7.864999 # CG
403 1 1.038000 4.271000 6.371000 # CG
404 1 3.585000 3.991000 5.516000 # CG
405 1 0.727000 0.405000 7.354000 # CG
406 1 1.446000 4.983000 4.985000 # CG
407 1 4.860000 0.955000 3.286000 # CG
408 1 2.799000 2.093000 6.160000 # CG
409 1 4.711000 5.303000 4.365000 # CG
410 1 3.181000 2.511000 7.388000 # CG
411 1 4.600000 1.901000 4.747000 # CG
412 1 1.461000 4.807000 4.251000 # CG
413 1 4.864000 3.162000 3.330000 # CG
414 1 1.687000 1.135000 2.874000 # CG
415 1 1.519000 1.979000 7.927001 # CG
416 1 4.447000 1.238000 4.167000 # CG
417 1 3.017000 3.257000 4.997000 # CG
418 1 1.021000 4.945000 6.783000 # CG
419 1 5.140000 4.724000 7.689000 # CG
420 1 4.125000 1.719000 5.375000 # CG
421 1 0.941000 2.460000 3.026000 # CG
422 1 2.738000 2.747000 4.751000 # CG
423 1 4.444000 3.967000 6.188000 # CG
424 1 2.035000 4.209000 4.142000 # CG
425 1 1.237000 3.264000 3.594000 # CG
426 1 1.486000 3.828000 4.272000 # CG
427 1 5.502000 1.546000 3.909000 # CG
428 1 0.466000 3.886000 6.154000 # CG
429 1 0.078000 0.177000 4.099000 # CG
430 1 2.180000 5.346000 6.753000 # CG
431 1 2.919000 0.108000 5.500000 # CG
432 1 4.998000 1.434000 7.438001 # CG
433 1 4.470000 3.225000 4.512000 # CG
434 1 4.341000 0.240000 4.223000 # CG
435 1 3.787000 2.256000 4.454000 # CG
436 1 4.109000 4.841000 5.998000 # CG
437 1 0.199000 2.376000 6.164000 # CG
438 1 1.114000 2.189000 4.650000 # CG
439 1 0.093000 0.219000 3.749000 # CG
440 1 4.584000 2.167000 4.650000 # CG
441 1 1.944000 1.689000 3.460000 # CG
442 1 5.061000 2.037000 5.013000 # CG
443 1 4.013000 3.854000 4.035000 # CG
444 1 3.466000 2.065000 4.043000 # CG
445 1 3.042000 0.260000 4.691000 # CG
446 1 5.180000 1.550000 6.127000 # CG
447 1 5.203000 3.493000 7.566000 # CG
448 1 3.096000 4.166000 8.137000 # CG
449 1 5.102000 4.783000 8.170000 # CG
450 1 4.862000 1.220000 5.695000 # CG
451 1 3.949000 0.361000 5.848000 # CG
452 1 3.467000 3.761000 5.574000 # CG
453 1 5.000000 2.316000 3.221000 # CG
454 1 2.921000 3.446000 3.212000 # CG
455 1 2.769000 3.069000 6.756000 # CG
456 1 1.421000 1.792000 7.239000 # CG
457 1 2.994000 0.994000 6.066000 # CG
458 1 2.207000 1.809000 7.892000 # CG
459 1 3.641000 3.267000 6.818999 # CG
460 1 2.853000 3.454000 4.049000 # CG
461 1 3.736000 5.242000 5.938000 # CG
462 1 3.976000 4.931000 5.358000 # CG
463 1 5.202000 3.241000 4.195000 # CG
464 1 1.498000 3.012000 5.241000 # CG
465 1 5.264000 4.886000 3.664000 # CG
466 1 2.259000 1.488000 7.994000 # CG
467 1 0.243000 2.523000 3.089000 # CG
468 1 4.136000 2.654000 4.063000 # CG
469 1 2.483000 4.311000 3.456000 # CG
470 1 5.057000 3.182000 5.353000 # CG
471 1 4.601000 4.019000 7.651999 # CG
472 1 0.884000 5.206000 7.083000 # CG
473 1 2.875000 5.051000 6.864999 # CG
474 1 5.305000 1.954000 5.125000 # CG
475 1 4.214000 5.432000 5.034000 # CG
476 1 4.000000 2.685000 7.875000 # CG
477 1 0.242000 4.796000 7.807000 # CG
478 1 1.985000 1.032000 5.511000 # CG
479 1 2.788000 2.976000 7.586999 # CG
480 1 3.487000 2.938000 8.040000 # CG
481 1 1.694000 3.921000 5.452000 # CG
482 1 4.576000 0.731000 2.998000 # CG
483 1 4.273000 4.497000 4.030000 # CG
484 1 5.451000 4.126000 6.350000 # CG
485 1 3.376000 3.562000 5.226000 # CG
486 1 4.623000 3.947000 7.040000 # CG
487 1 4.116000 3.266000 6.396000 # CG
488 1 4.935000 1.272000 5.977000 # CG
489 1 3.960000 4.323000 3.528000 # CG
490 1 2.614000 4.310000 6.934000 # CG
491 1 1.645000 5.477000 3.972000 # CG
492 1 4.926000 3.190000 6.566000 # CG
493 1 4.534000 3.789000 4.059000 # CG
494 1 4.668000 5.406000 7.722000 # CG
495 1 4.416000 2.310000 5.450000 # CG
496 1 3.723000 3.479000 4.155000 # CG
497 1 3.285000 0.474000 5.599000 # CG
498 1 1.337000 3.756000 7.230000 # CG
499 1 5.069000 4.559000 5.821000 # CG
500 1 1.656000 3.717000 6.151000 # CG
501 1 1.633000 3.063000 7.790999 # CG
502 1 4.005000 1.232000 3.437000 # CG
503 1 3.474000 2.650000 5.183000 # CG
504 1 0.697000 3.545000 7.067000 # CG
505 1 0.671000 1.712000 7.489000 # CG
506 1 5.086000 3.072000 4.739000 # CG
507 1 5.258000 1.581000 5.769000 # CG
508 1 1.616000 0.469000 8.018000 # CG
509 1 2.883000 3.492000 3.714000 # CG
510 1 1.437000 3.727000 5.980000 # CG
511 1 2.960000 5.375000 4.166000 # CG
512 1 1.480000 1.299000 7.676000 # CG
513 1 0.500000 4.850000 3.680000 # CG
514 1 4.091000 3.799000 7.552001 # CG
515 1 2.818000 2.667000 6.560000 # CG
516 1 0.644000 1.480000 7.638000 # CG
517 1 2.652000 4.650000 6.089000 # CG
518 1 2.902000 1.655000 5.484000 # CG
519 1 4.082000 3.393000 4.883000 # CG
520 1 3.236000 0.290000 5.395000 # CG
521 1 5.426000 5.083000 5.489000 # CG
522 1 0.332000 4.931000 5.389000 # CG
523 1 1.906000 3.637000 7.520000 # CG
524 1 5.131000 5.185000 8.053000 # CG
525 1 0.893000 1.394000 7.260001 # CG
526 1 3.313000 3.345000 3.892000 # CG
527 1 0.908000 4.472000 7.065000 # CG
528 1 3.083000 5.408000 4.903000 # CG
529 1 3.090000 2.087000 6.749000 # CG
530 1 1.370000 0.087000 2.918000 # CG
531 1 0.358000 0.302000 7.983000 # CG
532 1 3.212000 2.347000 5.477000 # CG
533 1 2.949000 3.985000 6.243000 # CG
534 1 0.033000 0.938000 4.365000 # CG
535 1 5.071000 4.840000 4.599000 # CG
536 1 3.227000 4.529000 7.919000 # CG
537 1 4.515000 5.222000 5.268000 # CG
538 1 2.081000 3.161000 5.374000 # CG
539 1 4.918000 1.886000 2.856000 # CG
540 1 2.576000 4.462000 7.780000 # CG
541 1 5.005000 5.240000 4.097000 # CG
542 1 1.723000 4.841000 4.312000 # CG
543 1 3.869000 0.168000 5.583000 # CG
544 1 5.088000 4.396000 3.679000 # CG
545 1 0.730000 5.114000 5.161000 # CG
546 1 5.122000 1.800000 3.036000 # CG
547 1 4.997000 1.101000 7.642000 # CG
548 1 5.238000 2.323000 6.943000 # CG
549 1 1.409000 2.055000 4.707000 # CG
550 1 5.179000 4.270000 4.669000 # CG
551 1 2.863000 3.795000 6.047000 # CG
552 1 1.999000 4.636000 8.030000 # CG
553 1 2.613000 1.968000 3.783000 # CG
554 1 3.531000 2.227000 2.901000 # CG
555 1 0.507000 3.178000 5.074000 # CG
556 1 2.736000 3.346000 4.343000 # CG
557 1 1.149000 4.167000 6.951000 # CG
558 1 1.097000 0.942000 5.208000 # CG
559 1 4.770000 0.878000 3.805000 # CG
560 1 2.506000 3.513000 3.820000 # CG
561 1 1.302000 2.948000 7.645000 # CG
562 1 4.765000 4.349000 5.857000 # CG
563 1 2.248000 2.657000 5.542000 # CG
564 1 1.999000 3.704000 6.244000 # CG
565 1 2.693000 4.114000 3.508000 # CG
566 1 1.834000 3.709000 5.046000 # CG
567 1 5.293000 1.282000 3.937000 # CG
568 1 0.673000 5.316000 4.392000 # CG
569 1 1.917000 2.316000 4.275000 # CG
570 1 1.883000 4.012000 5.619000 # CG
571 1 2.191000 1.804000 6.206000 # CG
572 1 4.119000 4.698000 5.728000 # CG
573 1 5.146000 1.244000 5.147000 # CG
574 1 3.712000 2.370000 3.077000 # CG
575 1 2.046000 1.217000 4.995000 # CG
576 1 2.045000 1.468000 3.184000 # CG
577 1 2.627000 4.376000 5.552000 # CG
578 1 0.190000 4.345000 7.847000 # CG
579 1 1.545000 3.239000 3.364000 # CG
580 1 2.666000 0.233000 7.545000 # CG
581 1 4.992000 3.312000 7.658000 # CG
582 1 3.215000 3.378000 6.628000 # CG
583 1 0.433000 3.593000 3.956000 # CG
584 1 0.177000 5.245000 6.831000 # CG
585 1 1.898000 1.315000 7.785000 # CG
586 1 0.530000 1.053000 5.595000 # CG
587 1 0.955000 3.673000 7.401000 # CG
588 1 0.933000 0.988000 6.804999 # CG
589 1 1.564000 2.520000 4.406000 # CG
590 1 4.481000 4.822000 3.226000 # CG
591 1 0.364000 0.140000 4.119000 # CG
592 1 0.037000 2.158000 5.421000 # CG
593 1 0.704000 1.407000 3.291000 # CG
594 1 5.375000 1.565000 3.239000 # CG
595 1 0.953000 2.271000 6.181000 # CG
596 1 0.752000 5.109000 6.871000 # CG
597 1 0.204000 1.902000 3.771000 # CG
598 1 0.915000 4.040000 4.619000 # CG
599 1 4.029000 1.775000 6.077000 # CG
600 1 0.362000 5.155000 4.869000 # CG
601 1 0.331000 1.322000 6.037000 # CG
602 1 0.252000 0.261000 5.243000 # CG
603 1 3.080000 4.409000 7.376000 # CG
604 1 2.358000 0.511000 7.715000 # CG
605 1 2.104000 5.000000 5.623000 # CG
606 1 3.020000 2.856000 8.048000 # CG
607 1 1.845000 0.838000 5.903000 # CG
608 1 2.556000 0.955000 5.062000 # CG
609 1 1.643000 4.011000 4.462000 # CG
610 1 0.178000 2.752000 4.222000 # CG
611 1 5.332000 2.881000 5.634000 # CG
612 1 4.035000 3.528000 4.552000 # CG
613 1 2.422000 4.175000 2.758000 # CG
614 1 0.220000 2.381000 7.613000 # CG
615 1 1.594000 2.996000 7.359000 # CG
616 1 1.756000 2.363000 2.873000 # CG
617 1 4.206000 5.357000 5.552000 # CG
618 1 5.300000 4.118000 5.589000 # CG
619 1 1.122000 3.817000 5.827000 # CG
620 1 5.474000 1.282000 6.203000 # CG
621 1 0.185000 2.652000 5.528000 # CG
622 1 4.183000 2.608000 6.253000 # CG
623 1 2.820000 4.566000 5.287000 # CG
624 1 0.361000 2.965000 4.921000 # CG
625 1 3.427000 5.045000 6.195000 # CG
626 1 2.884000 4.571000 4.686000 # CG
627 1 3.487000 4.134000 4.881000 # CG
628 1 0.982000 2.276000 7.973001 # CG
629 1 0.921000 2.019000 4.787000 # CG
630 1 4.913000 0.596000 7.019000 # CG
631 1 1.119000 0.691000 8.115000 # CG
632 1 4.732000 2.024000 3.554000 # CG
633 1 4.486000 2.662000 3.320000 # CG
634 1 3.510000 4.754000 3.564000 # CG
635 1 2.228000 0.240000 7.246000 # CG
636 1 3.619000 5.065000 6.758000 # CG
637 1 0.147000 1.957000 7.833000 # CG
638 1 4.802000 2.061000 4.147000 # CG
639 1 1.321000 0.716000 3.841000 # CG
640 1 1.082000 0.401000 8.120000 # CG
641 1 5.201000 1.250000 7.475000 # CG
642 1 2.276000 3.364000 3.855000 # CG
643 1 1.567000 4.603000 4.968000 # CG
644 1 0.756000 2.272000 2.900000 # CG
645 1 4.921000 2.596000 7.929000 # CG
646 1 2.556000 5.175000 7.811000 # CG
647 1 4.575000 3.978000 5.948000 # CG
648 1 4.511000 0.391000 7.518000 # CG
649 1 5.465000 2.977000 3.874000 # CG
650 1 3.740000 5.182000 3.536000 # CG
651 1 2.417000 1.794000 2.838000 # CG
652 1 3.474000 1.957000 7.733000 # CG
653 1 0.200000 0.829000 8.042000 # CG
654 1 5.343000 4.817000 3.916000 # CG
655 1 4.600000 1.543000 3.075000 # CG
656 1 1.628000 0.934000 3.602000 # CG
657 1 2.964000 3.066000 5.899000 # CG
658 1 0.966000 0.544000 7.822999 # CG
659 1 0.352000 0.746000 7.114000 # CG
660 1 1.607000 4.216000 3.033000 # CG
661 1 1.237000 2.734000 7.495000 # CG
662 1 4.993000 1.548000 2.939000 # CG
663 1 1.098000 3.483000 2.786000 # CG
664 1 2.256000 5.237000 2.996000 # CG
665 1 4.617000 1.265000 6.100000 # CG
666 1 2.968000 4.587000 7.116000 # CG
667 1 4.375000 5.197000 3.338000 # CG
668 1 3.299000 4.297000 4.972000 # CG
669 1 4.297000 2.761000 7.229000 # CG
670 1 2.674000 4.870000 4.420000 # CG
671 1 1.655000 3.187000 3.595000 # CG
672 1 3.505000 0.799000 3.059000 # CG
673 1 4.329000 0.607000 5.220000 # CG
674 1 3.739000 3.917000 4.670000 # CG
675 1 2.250000 0.980000 2.921000 # CG
676 1 1.376000 4.153000 4.179000 # CG
677 1 1.864000 3.797000 6.017000 # CG
678 1 2.085000 1.616000 4.230000 # CG
679 1 3.563000 4.726000 4.789000 # CG
680 1 0.236000 3.376000 5.724000 # CG
681 1 1.082000 0.820000 6.362000 # CG
682 1 0.118000 4.131000 5.997000 # CG
683 1 4.342000 3.927000 4.479000 # CG
684 1 4.673000 2.901000 7.863000 # CG
685 1 2.407000 2.876000 6.452001 # CG
686 1 3.919000 2.625000 3.511000 # CG
687 1 0.003000 0.778000 7.537000 # CG
688 1 1.211000 3.571000 5.923000 # CG
689 1 1.235000 1.085000 4.690000 # CG
690 1 3.917000 1.819000 5.203000 # CG
691 1 2.504000 1.921000 3.531000 # CG
692 1 4.634000 4.615000 4.655000 # CG
693 1 0.737000 5.224000 8.152000 # CG
694 1 4.160000 0.515000 7.972000 # CG
695 1 1.369000 0.513000 5.561000 # CG
696 1 2.169000 2.923000 4.695000 # CG
697 1 3.210000 1.767000 6.731000 # CG
698 1 0.388000 2.869000 7.540999 # CG
699 1 1.805000 3.806000 4.797000 # CG
700 1 5.255000 3.477000 6.038000 # CG
701 1 2.293000 3.259000 6.835000 # CG
702 1 2.633000 3.665000 3.113000 # CG
703 1 4.875000 0.617000 8.060000 # CG
704 1 0.253000 4.868000 3.398000 # CG
705 1 1.790000 3.564000 7.171000 # CG
706 1 2.665000 2.587000 5.629000 # CG
707 1 1.991000 1.450000 5.105000 # CG
708 1 2.147000 3.700000 7.822000 # CG
709 1 3.879000 0.037000 5.169000 # CG
710 1 1.970000 4.765000 7.370000 # CG
711 1 3.946000 0.940000 3.212000 # CG
712 1 5.039000 2.822000 4.800000 # CG
713 1 0.334000 0.079000 5.428000 # CG
714 1 3.223000 3.653000 5.451000 # CG
715 1 1.571000 4.837000 6.213000 # CG
716 1 3.940000 1.098000 6.340000 # CG
717 1 4.911000 5.245000 3.727000 # CG
718 1 1.266000 1.889000 3.936000 # CG
719 1 3.650000 1.504000 7.186000 # CG
720 1 4.958000 0.131000 3.577000 # CG
721 1 4.255000 5.007000 3.913000 # CG
722 1 0.533000 2.508000 3.703000 # CG
723 1 0.352000 0.546000 3.937000 # CG
724 1 4.916000 3.883000 4.116000 # CG
725 1 4.266000 2.287000 8.030000 # CG
726 1 1.689000 0.146000 4.545000 # CG
727 1 0.569000 4.904000 4.870000 # CG
728 1 1.988000 2.622000 3.038000 # CG
729 1 0.328000 2.867000 6.284000 # CG
730 1 4.713000 0.671000 3.507000 # CG
731 1 3.264000 0.926000 4.215000 # CG
732 1 0.256000 0.196000 4.974000 # CG
733 1 1.735000 0.975000 4.872000 # CG
734 1 0.511000 5.281000 5.467000 # CG
735 1 1.745000 3.780000 4.017000 # CG
736 1 0.299000 3.464000 3.457000 # CG
737 1 0.005000 2.981000 7.804000 # CG
738 1 2.654000 2.154000 4.401000 # CG
739 1 1.256000 2.235000 7.890000 # CG
740 1 3.941000 0.553000 6.908000 # CG
741 1 4.569000 3.106000 4.286000 # CG
742 1 1.493000 3.986000 3.663000 # CG
743 1 5.214000 0.618000 2.855000 # CG
744 1 4.243000 3.128000 7.086999 # CG
745 1 4.253000 4.560000 6.202000 # CG
746 1 2.965000 3.441000 7.566000 # CG
747 1 0.368000 4.900000 2.958000 # CG
748 1 4.518000 0.378000 6.665000 # CG
749 1 4.648000 0.895000 6.268000 # CG
750 1 1.379000 2.240000 8.110000 # CG
751 1 2.924000 4.725000 6.090000 # CG
752 1 3.091000 2.890000 5.702000 # CG
753 1 4.858000 0.171000 4.893000 # CG
754 1 2.201000 0.490000 8.077000 # CG
755 1 5.077000 0.930000 6.792000 # CG
756 1 1.527000 2.237000 7.353000 # CG
757 1 4.923000 2.306000 3.556000 # CG
758 1 1.154000 3.505000 3.148000 # CG
759 1 0.415000 2.408000 7.054999 # CG
760 1 2.544000 3.077000 4.457000 # CG
761 1 1.555000 4.975000 7.350000 # CG
762 1 2.673000 3.403000 3.088000 # CG
763 1 0.940000 2.583000 5.362000 # CG
764 1 3.873000 4.903000 4.110000 # CG
765 1 4.363000 5.371000 3.534000 # CG
766 1 2.902000 4.509000 5.847000 # CG
767 1 1.335000 1.970000 5.605000 # CG
768 1 5.412000 4.303000 5.879000 # CG
769 1 1.711000 0.520000 5.152000 # CG
770 1 0.643000 4.515000 7.401999 # CG
771 1 3.072000 0.945000 3.538000 # CG
772 1 2.753000 0.743000 5.290000 # CG
773 1 0.520000 5.049000 4.527000 # CG
774 1 4.654000 4.692000 3.056000 # CG
775 1 0.723000 0.094000 6.512000 # CG
776 1 5.347000 1.246000 5.349000 # CG
777 1 0.210000 4.656000 6.761000 # CG
778 1 2.025000 1.367000 8.039000 # CG
779 1 2.216000 4.908000 4.582000 # CG
780 1 3.744000 0.428000 6.426000 # CG
781 1 3.892000 0.172000 6.660000 # CG
782 1 2.061000 1.494000 3.605000 # CG
783 1 3.172000 5.397000 7.061000 # CG
784 1 5.189000 2.924000 7.702001 # CG
785 1 0.699000 0.206000 4.577000 # CG
786 1 1.299000 5.266000 4.308000 # CG
787 1 0.883000 1.194000 7.572999 # CG